VARIABLES = "X" "temp" "u" "rho" "H" "O" "OH" "HO2" "H2" "H2O" "H2O2" "O2" "CH" "CH2" "CH2*" "CH3" "CH4" "HCO" "CH2O" "CH3O" "CH2OH" "CH3OH" "CO" "CO2" "C2H" "C2H2" "C2H3" "C2H4" "C2H5" "C2H6" "HCCO" "CH2CO" "CH3CO" "CH2CHO" "CH3CHO" "C3H3" "pC3H4" "aC3H4" "aC3H5" "CH3CCH2" "C3H6" "nC3H7" "iC3H7" "C2H3CHO" "C4H2" "iC4H3" "C4H4" "iC4H5" "C4H5-2" "C4H6" "C4H612" "C4H6-2" "C4H7" "C4H81" "pC4H9" "NC12H26" "C6H12" "C6H11" "C5H10" "N2"
 ZONE I=779 FORMAT=POINT
2.5 298.0 30.971716970864104 1.244808168081325 -1.4059749072417812e-16 6.702979994454962e-19 1.735406599266638e-19 1.572868385354407e-17 1.1761667395920787e-16 -6.874403217333392e-16 -7.413214806532383e-17 0.20772512912643132 1.4991954802950485e-16 -3.2194765883771353e-22 -1.1081820312086041e-16 -1.7263986491183987e-15 -6.3752314739143326e-18 2.732091917637438e-22 -3.771219937200047e-17 -1.7865379724850856e-26 -1.7394009852720892e-35 -8.329037298129271e-18 -7.334151961329475e-16 -5.1184113329349973e-17 -1.2433381524758776e-40 -8.597334721192e-18 -5.095750847157763e-36 5.972339231396119e-17 2.327190375314126e-28 7.201647303043503e-16 -3.9326795339067326e-35 4.690330842774842e-19 -5.812976484448211e-18 -4.953527680746269e-35 -3.9444214354046354e-18 4.85336787293693e-18 5.921077389919109e-17 -1.9207965097362647e-17 -1.4276798515291994e-17 -4.553658365539072e-17 2.0553269655808027e-17 7.88626933039662e-21 -1.1663786945317163e-34 -5.4005719253685986e-18 7.370847832455289e-17 -8.891698048723555e-17 1.1177880219163109e-18 4.32698870550002e-18 -9.762337829858955e-18 -5.702619103660851e-18 -1.2116507605622395e-18 3.9136418272356115e-18 -3.012276011825177e-39 2.1016519335177912e-17 4.2260836358471925e-21 0.011228385358185471 1.6752691569048874e-17 -9.449347172703469e-18 5.3601408189912335e-18 0.7810464855153856
2.55 297.99999999999915 30.971716970864033 1.244808168081328 -2.4085024178242588e-20 5.881318003027376e-18 1.5226834110773151e-18 1.3800638074829377e-16 1.1756764908215926e-16 -6.476814362887343e-16 -7.413214773314593e-17 0.2077251291264311 3.596782351557666e-22 -2.824819879637694e-21 -1.4507560851712191e-22 -1.9312707912628833e-15 -7.141425512220993e-18 2.3971894073523733e-21 -8.347845613683721e-17 -1.5675406519165488e-25 -1.5261826373946059e-34 -8.329037457054146e-18 -6.834956012759301e-16 -5.866520101365948e-17 5.356619785224333e-41 -8.597334506924038e-18 -4.471936789564346e-35 3.300766239350774e-16 2.041918813379117e-27 8.229620631890638e-16 -3.4506055485923295e-34 4.115381665506801e-18 -5.1004173700463606e-17 -4.3471244198685364e-34 -3.944421405838751e-18 1.207019364332388e-18 5.921077390609492e-17 -1.920796510944229e-17 -1.427679851041558e-17 -3.602255859708836e-20 1.3882253341827378e-16 6.919565627221868e-20 -1.0234064600036158e-33 -5.400571905089381e-18 7.370847857225022e-17 -8.891698072189733e-17 1.1177880175581758e-18 4.326988729211644e-18 -9.762337808546742e-18 -5.7026191034763386e-18 -1.2116507591853903e-18 3.913641834869474e-18 -2.6430369205182416e-38 1.8718078323537855e-16 3.7080476998679765e-20 0.011228385358185261 1.3508326475839483e-16 -9.449347221059496e-18 4.480366521628196e-17 0.7810464855153852
2.65 297.9999999999997 30.971716970864087 1.2448081680813257 -1.4436965141779898e-24 1.1491935906305344e-19 8.099218595961628e-20 1.499525179790782e-16 1.1756769570900092e-16 -6.410269424796518e-16 -7.413214578512404e-17 0.2077251291264311 4.229407743523681e-28 -1.0605028974722367e-25 -9.309177749345241e-29 -2.0241557252045348e-15 -8.732960756508055e-18 9.798113113572283e-24 -8.406635769119539e-17 -9.475504609737473e-27 4.872157980278609e-37 -8.32903688059458e-18 -6.830687890227221e-16 -5.866562276452314e-17 1.5933669626100413e-43 -8.597329102503388e-18 4.263255136863425e-37 3.4435683269380214e-16 5.222952186078254e-28 8.701703268817747e-16 -1.7749360997022683e-36 5.153501334595151e-18 -5.042833154346782e-17 4.0384868137020256e-36 -3.944421189824842e-18 1.6890093069385373e-19 5.921077420283492e-17 -1.920796496199085e-17 -1.4276798561659e-17 -1.3972568129365019e-23 1.45112200267985e-16 1.8342385497426192e-21 -3.468331833159516e-37 -5.4005714264022316e-18 7.370847881967522e-17 -8.891698091823793e-17 1.117788013956602e-18 4.326988754175598e-18 -9.762337783322272e-18 -5.702619010588358e-18 -1.2116506738937273e-18 3.913641956802198e-18 -1.1314635401298375e-41 1.9597218483916771e-16 9.740727288630978e-22 0.011228385358185251 1.4130557130742297e-16 -9.449347241760758e-18 4.6877767398026914e-17 0.7810464855153852
2.75 297.9999999999987 30.971716970863987 1.2448081680813299 -1.0536551225671145e-28 2.2314210160900882e-21 -3.435044986616608e-21 1.4846078552558901e-16 1.175685138511226e-16 -6.413263375958028e-16 -7.413211776505879e-17 0.2077251291264311 4.939912238301779e-34 -3.8933418259050895e-30 -2.993628638544753e-34 -1.8574966576834884e-15 -1.0180868987208402e-17 1.3653012309594077e-24 -8.456838149303757e-17 1.312850400357643e-25 8.551708290148866e-39 -8.329027431375558e-18 -6.83524663289127e-16 -5.866311915735737e-17 4.285664833100483e-46 -8.597239683051394e-18 -1.2503494133598674e-38 3.422870406862008e-16 -7.163051792519694e-28 7.875136440582816e-16 2.0527374277916593e-38 5.29887830402829e-18 -4.9823873680948195e-17 -1.205850978127132e-37 -3.9444181191856654e-18 2.3544050168407238e-20 5.921077918696888e-17 -1.9207962271303888e-17 -1.4276798451856355e-17 -5.383393935023028e-27 1.441520458875901e-16 -2.607418228563482e-22 -1.3375562187778612e-40 -5.40056360984011e-18 7.37084796075173e-17 -8.891698104224881e-17 1.1177880119241911e-18 4.326988859865548e-18 -9.762337640052489e-18 -5.702617426726579e-18 -1.2116492357527638e-18 3.9136439361349965e-18 -4.408102473537135e-45 1.9465378122052848e-16 -1.355896697905845e-22 0.011228385358185251 1.4034334016952808e-16 -9.449347254986374e-18 4.655702367562915e-17 0.7810464855153852
2.875 297.999999999996 30.97171697086371 1.2448081680813408 -5.006126962237873e-29 3.4232129219535594e-23 -4.333596900338935e-21 1.4666819439925923e-16 1.1758737186007718e-16 -6.416612672762051e-16 -7.413195585139046e-17 0.20772512912643107 5.757356798520446e-40 -1.5005159307333624e-32 -7.085160803240206e-34 -1.3960264572639517e-15 -1.1530175840344272e-17 1.5595447712422449e-25 -8.503446190600416e-17 2.513331825143208e-25 -1.5996491706363153e-37 -8.328809141765096e-18 -6.841734260571991e-16 -5.860524798038064e-17 1.2722248433655378e-47 -8.595172776354744e-18 3.975301345787701e-38 3.400007951235473e-16 -1.699061005346126e-27 5.57316974227179e-16 1.0432439928107286e-36 5.320196922467141e-18 -4.9079519583964386e-17 3.865278932912489e-37 -3.944347806576309e-18 2.689368445558449e-21 5.921089448048968e-17 -1.9207899818095748e-17 -1.427679329956317e-17 -1.650462992458961e-30 1.4309209533490404e-16 -2.3421302812608324e-22 -2.998905463313496e-41 -5.400383059780607e-18 7.370849383202857e-17 -8.891698012827307e-17 1.1177880348262742e-18 4.3269909284418964e-18 -9.762334662299559e-18 -5.702580758799212e-18 -1.2116159606097786e-18 3.913689641249899e-18 -2.6270838221783307e-47 1.9319452063490616e-16 -1.2208016436909705e-22 0.011228385358185253 1.392838371636811e-16 -9.449347140717367e-18 4.6203855783633025e-17 0.7810464855153851
3.0 297.99999999999267 30.971716970863376 1.2448081680813543 -6.328099029210186e-29 3.124253217047515e-26 -2.5904944473479294e-21 1.4562150091343093e-16 1.1797269152626417e-16 -6.392736352530528e-16 -7.412680564409537e-17 0.20772512912643096 8.290724953096579e-40 -1.9578835768625511e-32 -9.34353140933414e-34 -8.241192678024157e-16 -1.2282308306806352e-17 1.761293836730231e-26 -8.525826704083569e-17 3.1444480468950265e-25 -2.503113764339317e-37 -8.324348392473662e-18 -6.833768457571043e-16 -5.742262292350205e-17 1.0120553163448244e-47 -8.552934555659877e-18 5.702360864292668e-38 3.3899764934190917e-16 -2.148942173508217e-27 2.715442635108991e-16 1.2640635230796605e-36 5.332062978554589e-18 -4.8346440624571056e-17 5.545604558208112e-37 -3.942911610019779e-18 3.037276741881201e-22 5.921325063278922e-17 -1.9206623375361993e-17 -1.4276683950948884e-17 -4.962926181076211e-34 1.4250009917277164e-16 -1.3889813187369663e-22 -2.945370359455882e-41 -5.3966935371607775e-18 7.370878121013949e-17 -8.891695832563089e-17 1.1177885604113088e-18 4.3270328933746275e-18 -9.762274084635547e-18 -5.7018313852946016e-18 -1.2109359403051758e-18 3.914623608869225e-18 -1.8239768751255028e-47 1.9236018759503814e-16 -7.239682483301859e-23 0.011228385358185248 1.3870053973899644e-16 -9.449344624835958e-18 4.6009418756494606e-17 0.7810464855153847
3.25 297.99999999998914 30.971716970863035 1.2448081680813683 -5.316184249280171e-29 -4.168744162230195e-25 4.037004742318276e-22 1.4642029659654868e-16 1.4120989719452288e-16 -4.787269813214721e-16 -7.380908631081747e-17 0.20772512912643062 -9.62398456109791e-40 -1.801203576664008e-32 -8.652591272280261e-34 1.3275687737360691e-16 -1.0139778513960164e-17 1.0523542093384853e-27 -8.228386496733492e-17 3.449834822061461e-25 -3.4061242346721543e-37 -8.055336580348519e-18 -5.926957719658792e-16 1.3897290354399995e-17 5.674913085219416e-48 -6.005697534950224e-18 4.5079609926861305e-38 3.598389613912611e-16 -1.8059550266806903e-27 -2.0657879808176807e-16 1.9287812781939064e-36 5.904078127350932e-18 -4.692276020236895e-17 4.384378104862387e-37 -3.856301475125756e-18 1.8147463369833452e-23 5.935534192991478e-17 -1.9129645431455027e-17 -1.4270078713319305e-17 9.55972626208728e-37 1.4428023622336042e-16 2.2154244224492416e-23 -2.832291407405657e-41 -5.174191736332736e-18 7.372610593746786e-17 -8.89156377391509e-17 1.117820363393162e-18 4.329563073907232e-18 -9.758621374120634e-18 -5.656639243099867e-18 -1.1699262810276573e-18 3.970947805515697e-18 -6.088346256432696e-48 1.9361155343703373e-16 1.155608556624023e-23 0.01122838535818522 1.409996796551556e-16 -9.44919271330967e-18 4.677552417590757e-17 0.7810464855153842
3.375 298.00000000001916 30.971716970866233 1.2448081680812397 -4.237272381248964e-29 -3.366599210802429e-25 1.585956171516469e-21 1.5334776168444325e-16 4.915482294489274e-16 1.9404834730939315e-15 -6.901595348688217e-17 0.20772512912642707 2.5235975303708453e-40 -1.5104524656466736e-32 -7.2806815096587914e-34 5.100141199064319e-16 1.8336358697994285e-17 1.2020856441513866e-28 -3.876704132986987e-17 3.500502289754015e-25 -3.4850278728543834e-37 -3.99954995091811e-18 7.952261980828915e-16 1.0891599416467873e-15 1.621582083406512e-47 3.239800643255325e-17 3.33076025475137e-38 6.675618507420954e-16 -1.4396947485993967e-27 -3.7750025281690704e-16 2.3925460754937413e-36 1.4523839138613684e-17 -4.6221371310752066e-17 1.1324795815871489e-38 -2.5505149008501663e-18 2.072999221797722e-24 6.14975973196111e-17 -1.7969078826391125e-17 -1.417048676892136e-17 5.9224812039957255e-37 1.6812815838838256e-16 8.568040893129745e-23 -2.9303211894164007e-41 -1.819618496076012e-18 7.398730218043851e-17 -8.889572595495124e-17 1.1182998775551693e-18 4.367709450426823e-18 -9.703551029953411e-18 -4.975294828591278e-18 -5.516395760410979e-19 4.820125837246107e-18 -9.562647416949411e-49 2.0836169096582044e-16 4.4669902997442936e-23 0.011228385358184885 1.7267004153796442e-16 -9.446902787928471e-18 5.732817218057234e-17 0.7810464855153822
3.5 298.00000000067706 30.971716970936164 1.2448081680784289 -2.9062557959466495e-29 -2.3202765161349656e-25 2.3945906741153355e-21 2.8173867004238437e-16 7.650881145719769e-15 5.1374838424503004e-14 2.8935623010249255e-17 0.2077251291263549 1.6058479010862703e-42 -1.0992005015313714e-32 -5.318278331746178e-34 7.676307713320761e-16 5.904611499887307e-16 1.4268729471910952e-29 8.471220679748455e-16 3.632826349174547e-25 -2.0459037541003026e-37 7.888240674726753e-17 2.917171607619962e-14 2.3062671062610294e-14 3.88310168552514e-46 8.171962277899903e-16 -3.3882517087025634e-33 6.9392971435277255e-15 -9.876860331277962e-28 -1.3103815652993032e-16 4.311414985250217e-36 1.906724878631946e-16 -4.552317109125397e-17 -3.2896619846430415e-32 2.4133863360757236e-17 2.461405839462892e-25 1.052756199016275e-16 5.747659614173838e-18 -1.2135271281030607e-17 4.7730565678570785e-37 6.477638938814276e-16 1.290816430801431e-22 2.4325559686175954e-41 6.673270423186041e-17 7.932497343947899e-17 -8.84888159117743e-17 1.1280990384038615e-18 5.147248753793585e-18 -8.57816224818631e-18 8.948307048174595e-18 1.2083347600416405e-17 2.2173488665996118e-17 2.37409771258696e-45 4.991814734052048e-16 6.729252246274812e-23 0.011228385358178045 8.121598513433501e-16 -9.400106824547017e-18 2.7040685373506145e-16 0.781046485515343
3.625 298.000000014152 30.971716972368384 1.2448081680208651 -1.5741715441346426e-29 -1.2610644954125172e-25 2.9251951491664648e-21 2.8856210628575054e-15 1.5395530390022247e-13 1.0615846344485033e-12 2.0306244484866163e-15 0.20772512912488064 -1.2791271072968263e-40 -6.351318474844452e-33 -3.0847404488367593e-34 9.363325716285961e-16 1.2267358966562862e-14 9.898901801083494e-29 1.894557893430214e-14 5.488894020491414e-25 3.059662905243641e-36 1.7726151843982763e-15 6.090724081385211e-13 4.721019735896408e-13 9.661889792285467e-45 1.685492656606582e-14 5.350671394354614e-31 1.350800314134919e-13 -5.352809117582402e-28 7.470089021898585e-15 3.958723218417533e-35 3.79035508226184e-15 -4.468416839547613e-17 5.2344168328109854e-30 5.69442008544904e-16 1.700157403837745e-24 9.999006353820838e-16 4.904106534696123e-16 2.945534699863479e-17 1.158598166056994e-35 1.0437739527237107e-14 1.5752036658528698e-22 3.9303710873705613e-38 1.4676324972870534e-15 1.8840285904682178e-16 -8.01734097100473e-17 1.3283496762578974e-18 2.1077510565355105e-17 1.441970026137811e-17 2.934838299232448e-16 2.702854072227843e-16 3.7679783147434083e-16 2.935416190066796e-43 6.426246384905835e-15 8.211539778527977e-23 0.011228385358038344 1.3868829769667261e-14 -8.443808060266488e-18 4.620901555377951e-15 0.7810464855145424
3.75 298.00000028953497 30.971717001638222 1.244808166844459 -4.2180052168518816e-30 3.462675703621386e-25 5.140912341396431e-21 5.6120333712492684e-14 3.1437567762265942e-12 2.1705703020927016e-11 4.291243209182565e-14 0.20772512909475288 1.5196557797933794e-40 -1.5834690320823373e-33 -7.652114331224721e-35 1.643061306433086e-15 2.50872410456742e-13 1.7611657413147922e-26 3.8879003902722933e-13 8.487818362361428e-24 1.2057872652727081e-34 3.638486173788244e-14 1.245963603937509e-11 9.648436786505648e-12 3.4997364782244252e-43 3.445936843872492e-13 3.4076390242438305e-28 2.7536670114955457e-12 -1.4537631877564379e-28 1.6419188239313087e-13 1.300955475275747e-33 7.735160551208857e-14 -4.0720312975514745e-17 3.326850730285402e-27 1.1713077074840693e-14 2.993236014369799e-22 1.928199449179115e-14 1.0394732786855088e-14 8.793797119124816e-16 4.394280099427247e-34 2.1048644526298315e-13 2.765377281272042e-22 1.5482055819246405e-35 3.009569571583468e-14 2.4174620858640942e-15 8.975592828538355e-17 5.42056814122629e-18 3.466200969598339e-16 4.843921170591236e-16 6.108104530943963e-15 5.54676908054642e-15 7.623717386443599e-15 1.1988406347171333e-40 1.2752918068868896e-13 1.4415632004258222e-22 0.011228385355183544 2.8067400896741235e-13 1.1098622446083674e-17 9.352063642163091e-14 0.7810464854981825
3.875 298.00000591712353 30.971717599781712 1.2448081428040128 1.3867132020040665e-29 1.5452336233659543e-22 4.894000424920872e-20 1.1440035546192156e-12 6.424179152426473e-11 4.435782057443329e-10 8.783275012010928e-13 0.20772512847907793 1.904916339707526e-41 3.165514454469225e-32 1.5977600343574443e-33 1.5386814510010295e-14 5.126850123166081e-12 3.21274610081155e-24 7.946728962789404e-12 1.8846536239384967e-21 2.3512222335974588e-32 7.437028098372636e-13 2.546316300655303e-10 1.971712634520281e-10 2.7314209391431613e-40 7.042093233754832e-12 1.441657630176986e-25 5.626570062433086e-11 1.6391654058946376e-28 3.367253860596316e-12 2.533877741334068e-31 1.5806111812799582e-12 2.8270458574338554e-17 1.407396860698879e-24 2.3943863310017933e-13 5.354865637101185e-20 3.928853979430259e-13 2.1279433137284783e-13 1.8247995483007364e-14 8.612767253813808e-32 4.298553332402878e-12 2.6019448474244162e-21 6.445256790249798e-33 6.151239718351688e-13 4.796936222568067e-14 3.5623438910575725e-15 8.904702576905477e-17 6.999239824557429e-15 1.008850507140254e-14 1.2493268232499028e-13 1.1337425722777953e-13 1.557180129053288e-13 6.370493689525608e-38 2.6022918105443383e-12 1.3564733296474077e-21 0.011228385296844317 5.7329416211144654e-12 4.104576659862702e-16 1.9102212931271375e-12 0.7810464851638586
4.0 298.00012091958854 30.97172982313029 1.2448076515261952 5.052668941410431e-27 5.590770145610312e-20 1.2291741271518426e-18 2.337507310720417e-11 1.312809197225906e-09 9.064743388302589e-09 1.79503982588061e-11 0.20772511589746798 6.232835573915708e-41 1.7361687433942804e-29 7.2794051512046635e-31 2.9736445160636294e-13 1.0476947860689962e-10 6.004449484036435e-22 1.6239670171222084e-10 6.113073666948082e-19 1.2071236797754325e-29 1.5198081565334112e-11 5.203531517234973e-09 4.029289434927958e-09 1.309271537459077e-35 1.4390868266469597e-10 6.023703135686642e-23 1.1498090562063218e-09 1.4077385053522144e-26 6.882298571421804e-11 1.3569386015014955e-28 3.230042717496615e-11 1.446473287127861e-15 5.8676840128856575e-22 4.893118703419718e-12 9.579891156845557e-18 8.027648678497765e-12 4.3489264136959974e-12 3.7318452854240836e-13 4.425850482199999e-29 8.783991071510959e-11 5.461296240055712e-20 2.6840323824240343e-30 1.2570455104640264e-11 9.78844111587035e-13 7.452633089061309e-14 1.7979934703233316e-15 1.4294868875002168e-13 2.063531221724998e-13 2.553169456907465e-12 2.3168802733299044e-12 3.18209539341781e-12 1.3215051455397879e-34 5.317492136298618e-11 2.85155487739855e-20 0.011228384104654938 1.1715238998105834e-10 8.571585860423801e-15 3.9035285438063195e-11 0.7810464783317927
4.0625 298.00101659270655 30.97182502217859 1.2448038253227456 1.108155803186137e-24 4.53162954392297e-18 3.128162496278296e-17 1.9651594654651064e-10 1.1037007460252708e-08 7.620883019105528e-08 1.5091119412381087e-10 0.20772501790831513 -8.441811739435104e-41 5.21227553572695e-27 1.5551326157125996e-28 2.4969190646593995e-12 8.808124738494004e-10 4.086162799310729e-20 1.3652960137209848e-09 5.485601994476577e-17 2.586772810526291e-27 1.2777289662575475e-10 4.3746971382698216e-08 3.3874916266998454e-08 7.193192018197822e-32 1.2098646291918234e-09 4.2581179908568986e-21 9.666631884481337e-09 4.150866734512061e-24 5.786105600051108e-10 3.217757581146115e-26 2.7155450951212287e-10 1.2653425708801957e-14 4.1566761269784473e-20 4.113730304001034e-11 6.498712983289144e-16 6.748935774724771e-11 3.656230001782873e-11 3.137626075171994e-12 9.84016820615284e-27 7.384819055230039e-10 7.809470562939125e-19 1.9025043636377797e-28 1.0568197612036479e-10 8.228761560578013e-12 6.272140560106594e-13 1.5107754698989518e-14 1.2017616843985645e-12 1.7349178115858648e-12 2.146496846574449e-11 1.947841218302268e-11 2.6752383655352943e-11 7.063799808647902e-32 4.470464107402642e-10 4.10440493295502e-19 0.011228374819548022 9.849169188797208e-10 7.213855910979293e-14 3.281752358246315e-10 0.7810464251217264
4.125 298.0106160470496 30.972845326725086 1.244762819112658 8.868485761859108e-22 4.308123220552101e-16 2.392215541376175e-15 2.0522099548559244e-09 1.1525545084846884e-07 7.958210653625046e-07 1.5758464755851695e-09 0.20772396771618723 -5.688592252590818e-41 4.56953804648171e-24 1.2426632963327997e-25 2.6092215826568967e-11 9.197988891929644e-09 2.2671403162821645e-18 1.4257269159613934e-08 5.027178816612245e-15 2.0644985026588387e-24 1.3342859348174176e-09 4.5683367701425206e-07 3.5374342220108823e-07 3.4649085540374725e-28 1.2634176052362244e-08 4.643916226068808e-19 1.0094507092540912e-07 2.9557759180157115e-21 6.042224368079195e-09 2.6276662161721784e-23 2.835717537100281e-09 1.3377345259417504e-13 4.5245813920708685e-18 4.295819028339964e-10 3.311349285851066e-14 7.04766240657225e-10 3.818069696099481e-10 3.2769810809502464e-11 7.622571188135043e-24 7.711675031866938e-09 3.9689039582621914e-17 2.0965699893116247e-26 1.103598464377535e-09 8.592926609469204e-11 6.550607721353726e-12 1.577542289484294e-13 1.2549519027497585e-11 1.811720746054946e-11 2.2415090730211338e-10 2.034059806475495e-10 2.793653689551684e-10 7.514084667436963e-29 4.668313253243548e-09 2.1047787401502817e-17 0.011228275307067728 1.0285107604102439e-08 7.536861755562006e-13 3.4270074440406097e-09 0.7810458548464663
4.15625 298.05039475416197 30.97707332698127 1.2445929238658564 9.42820446100135e-20 9.997687033635473e-15 5.3489270027378396e-14 9.745550713478126e-09 5.4709604994048e-07 3.777613144060311e-06 7.477641486706065e-09 0.20771961612928025 3.89398100471504e-38 4.940750185219365e-22 1.3221766885521468e-23 1.2416954924347437e-10 4.366106219344839e-08 4.597151640491658e-17 6.767599367604179e-08 1.419574751008905e-13 2.190893627839829e-22 6.333605596953382e-09 2.168503354120846e-06 1.6791538052449649e-06 1.5929811080363743e-25 5.997206802530757e-08 1.0480550612761511e-17 4.791665745824706e-07 3.132540270907295e-19 2.868130395010403e-08 2.803772990536589e-21 1.3460080734533064e-08 6.425365991317783e-13 1.0213604926220521e-16 2.039144161893119e-09 6.568502732501984e-13 3.3453931454421467e-09 1.8123661287319972e-09 1.5573672906508083e-10 8.070260557008226e-22 3.660548069605118e-08 8.337469403518484e-16 5.9389305757897805e-25 5.238575346333066e-09 4.0788986478403864e-10 3.109484179287486e-11 7.488256065600221e-13 5.957020143108545e-11 8.599902901259666e-11 1.064002419291839e-09 9.655301188803854e-10 1.3260950970500346e-09 8.023801712920055e-27 2.2159124732440897e-08 4.426966289775582e-16 0.011227862966739768 4.882113837689112e-08 3.5889150142478815e-12 1.6267248786014443e-08 0.7810434918493423
4.171875 298.1427440698797 30.986889024610193 1.2441986749368323 2.2359219368257852e-18 8.536622059975405e-14 4.4683591421934807e-13 2.7626992725891758e-08 1.5495216752036931e-06 1.0699203287277406e-05 2.1162856801333994e-08 0.20770951484916528 1.0977189156782738e-35 1.1839233663421019e-20 3.142184877085502e-22 3.533056063627419e-10 1.2365957103097503e-07 3.2716016346343483e-16 1.9167243911922738e-07 1.5850586965579084e-12 5.182589319509126e-21 1.793845735130581e-08 6.141775604544008e-06 4.755810627781038e-06 9.375429296535516e-24 1.6985685958806573e-07 8.43611189484597e-17 1.3571229179095875e-06 7.55164524049472e-18 8.123305352615658e-08 6.662237298603975e-20 3.8119619175006914e-08 1.8460784290908924e-12 8.225194444323109e-16 5.775394763808405e-09 4.532053468406138e-12 9.475042750240847e-09 5.133102487906656e-09 4.4220832714940395e-10 1.9129664336668674e-20 1.0367421567339844e-07 6.911157706217749e-15 1.2167935444606039e-23 1.4837040125817857e-08 1.1552525609442262e-09 8.806903374341786e-11 2.1208714433407074e-12 1.6871866225537982e-10 2.4357216493391535e-10 3.0135381485502367e-09 2.734638367147967e-09 3.7558543748045754e-09 1.8378238658075244e-25 6.275781896081496e-08 3.66726246049567e-15 0.011226905809947871 1.3827254509815225e-07 1.0233357990948934e-11 4.607254057964259e-08 0.7810380066632057
4.1796875 298.27299927070857 31.000733883823873 1.2436430185593779 1.6905666582729753e-17 3.39811480048661e-13 1.7607711620850579e-12 5.288932155800281e-08 2.9632061798694932e-06 2.046046524311977e-05 4.043345988716952e-08 0.20769526937798372 4.499617191397744e-34 8.99513501771943e-20 2.38018237833763e-21 6.793177602116371e-10 2.3647834188413286e-07 1.0637901392027062e-15 3.6653088845738364e-07 7.704510213949652e-12 3.9050331299516856e-20 3.430435884963682e-08 1.1745132106795825e-05 9.094708130111672e-06 1.1676344005338372e-22 3.248233878801382e-07 3.098140791514305e-16 2.595264604551172e-06 5.98616084345272e-17 1.5534481234555842e-07 5.045593340759921e-19 7.289143601341068e-08 3.583112365667441e-12 3.026146761751762e-15 1.1044485532151945e-08 1.4190038276335256e-11 1.811945942122134e-08 9.816214750376893e-09 8.482795110516126e-10 1.4577727013214742e-19 1.9825458110506466e-07 2.7272752597573293e-14 1.378918744612182e-22 2.8373406821362888e-08 2.2092310669442516e-09 1.6841767037250945e-10 4.05581793919826e-12 3.226467747294742e-10 4.657918440282101e-10 5.762897687624408e-09 5.2295475699244095e-09 7.182455764654364e-09 1.31469462121025e-24 1.2000754639134303e-07 1.4450668190867052e-14 0.011225555972894163 2.644190027665234e-07 1.973109866908343e-11 8.810465694878307e-08 0.7810302711175001
4.1875 298.5612563750969 31.031373553922986 1.2424150738232722 1.476798067904412e-16 1.4141249354937543e-12 7.46893805096109e-12 1.0888090157913381e-07 6.090674843781904e-06 4.205511377619889e-05 8.299442038419082e-08 0.20766375437850781 2.207580449258392e-32 7.799119959294194e-19 2.0908204943638108e-20 1.4075198797695851e-09 4.860647638703797e-07 3.629480284836126e-15 7.533393391340842e-07 3.639739871077273e-11 3.4023412763496175e-19 7.051034643990084e-08 2.4141324993045067e-05 1.869357250827735e-05 1.5142314363705114e-21 6.676530161791324e-07 1.3169874991706697e-15 5.334361322447406e-06 5.198996698959565e-16 3.193007496930421e-07 4.397772149648743e-18 1.4980665468079365e-07 7.519159118688528e-12 1.287659989696758e-14 2.270118130127151e-08 4.432339394869954e-11 3.7243322704032975e-08 2.0176574862952117e-08 1.7516831584059788e-09 1.279773012529807e-18 4.0748199979878764e-07 1.157626776195725e-13 2.3044237125196733e-21 5.8319665664613633e-08 4.540928654916015e-09 3.461715060513433e-10 8.336465138645956e-12 6.631791372961595e-10 9.574044229072744e-10 1.1845256091588438e-08 1.0748990079625724e-08 1.476306404888777e-08 1.1733673524006781e-23 2.466466221028461e-07 6.12887738239535e-14 0.011222569769709492 5.434810526349614e-07 4.105559502733444e-11 1.8108838881682388e-07 0.7810131579444316
4.1953125 299.1986145066091 31.09912382229331 1.2397084395412348 1.3823144325577387e-15 5.938416951049348e-12 3.264678924747899e-11 2.3302923769202092e-07 1.300066291435476e-05 8.976736364145044e-05 1.767315332397886e-07 0.20759412352551138 1.1644312650277435e-30 7.180606431440284e-18 1.975381986451611e-19 3.045926344808288e-09 1.0375116446291912e-06 1.3197589144910866e-14 1.6078462018664445e-06 1.74026698660887e-10 3.1690889603408792e-18 1.5050569091733348e-07 5.153006438870324e-05 3.99017903166476e-05 1.9750739395204537e-20 1.4251181214999166e-06 6.0640374131599404e-15 1.1386168809037558e-05 4.7047427250157436e-15 6.815526131133646e-07 4.097233219270871e-17 3.197150459031842e-07 1.6597187776729695e-11 5.935617342658075e-14 4.8456007986331777e-08 1.3838982697215403e-10 7.949640753741858e-08 4.30672611180769e-08 3.769129224085465e-09 1.2059288215871784e-17 8.697131316303018e-07 5.076285664461805e-13 4.539853670027815e-20 1.244844471301186e-07 9.692699701426775e-09 7.389098558557957e-10 1.779434493643186e-11 1.415568482828972e-09 2.043598245326653e-09 2.5283927738207435e-08 2.294392661910724e-08 3.151204488139213e-08 1.1996363539465314e-22 5.263925489305124e-07 2.6850172596379017e-13 0.01121597197223352 1.1600148931513403e-06 8.950625025005368e-11 3.865180266389631e-07 0.7809753473778805
4.203125 300.6051380038074 31.24865308000555 1.2337762580078637 1.2980538162551581e-14 2.405975273647836e-11 1.4021604212298634e-10 5.085634477397213e-07 2.8225021119195543e-05 0.00019488859339171374 3.8190481081436985e-07 0.20744070995777353 5.978223459965528e-29 6.584849741452131e-17 1.88661073419733e-18 6.7907870638875404e-09 2.252472070276194e-06 5.2443805909311015e-14 3.4899304049643457e-06 8.347485828942883e-10 2.943779822150806e-17 3.267545597021765e-07 0.00011187387660099579 8.662856838478001e-05 2.46993431653583e-19 3.0939947321874733e-06 2.9171959569436125e-14 2.4719350012947914e-05 4.0992208823586074e-14 1.4796769245917115e-06 3.8189217629537097e-16 6.939570622230109e-07 3.826797343126597e-11 2.856216889207624e-13 1.0519983071448442e-07 4.3217581383424746e-10 1.7258907826170933e-07 9.350082964957154e-08 8.31180687362988e-09 1.138933445866039e-16 1.8879153760922887e-06 2.203853839985255e-12 9.098898076424404e-19 2.702612722185471e-07 2.1043284808228515e-08 1.6042064700174398e-09 3.8632323466937636e-11 3.0732609836570486e-09 4.4367438561369776e-09 5.4892540378671075e-08 4.9812291657727515e-08 6.841405932365975e-08 1.3382471205599906e-21 1.1424925045251543e-06 1.163923079340563e-12 0.011201435755240071 2.518212787929014e-06 2.024363010589547e-10 8.390707805583681e-07 0.7808920422876967
4.20703125 301.94197439092886 31.390801048974343 1.2281893094950203 4.4163793031940306e-14 5.1117374358748874e-11 3.125029203342355e-10 7.73824755907126e-07 4.268463040492212e-05 0.0002947289100611303 5.744170079668265e-07 0.2072950023004862 5.186686477546269e-28 2.2042863837001257e-16 6.541619869730648e-18 1.0590447517901301e-08 3.406386525804535e-06 1.165763151263246e-13 5.276408978306465e-06 2.1005294530255655e-09 9.890251082427702e-17 4.94149999778104e-07 0.0001691863024611979 0.0001310081595134136 9.790887149023923e-19 4.679039776620868e-06 6.833772115807133e-14 3.738213682199799e-05 1.3742456183877292e-13 2.2377039365658494e-06 1.292921193576979e-15 1.0492610832244968e-06 6.163147654871619e-11 6.710329166454912e-13 1.590931853486502e-07 8.148472763452419e-10 2.6100302321067465e-07 1.414008371146397e-07 1.2800182023547965e-08 3.938622841345006e-16 2.8546398583150117e-06 4.974277540600332e-12 4.7883488198908404e-18 4.087153448265425e-07 3.182370803373511e-08 2.426037548034347e-09 5.84235868691839e-11 4.6476795778592686e-09 6.709681170571128e-09 8.301385985760737e-08 7.533100667817846e-08 1.0346241006067895e-07 5.157550079913782e-21 1.7272471865571635e-06 2.620967713348106e-12 0.01118763021900579 3.8079073402556036e-06 3.209960964707643e-10 1.2687981225049752e-06 0.7808129228105876