 VARIABLES = X temp u rho H2 H O O2 OH H2O HO2 H2O2 C CH CH2 CH2(S) CH3 CH4 CO CO2 HCO CH2O CH2OH CH3O CH3OH C2H C2H2 C2H3 C2H4 C2H5 C2H6 HCCO CH2CO HCCOH N NH NH2 NH3 NNH NO NO2 N2O HNO CN HCN H2CN HCNN HCNO HOCN HNCO NCO N2 AR C3H7 C3H8 CH2CHO CH3CHO
ZONE I=0352, F=POINT
0.781250000000E-04        299.999366455           0.190027155012            1.13633299890           0.720719489827E-17       0.794424282618E-36       0.137699485509E-21       0.195621797857           0.809085859552E-25       0.493105451205E-21       0.215957517402E-21       0.191276498735E-21       0.236497204632E-68       0.349020588940E-65       0.234365224981E-44       0.103161474917E-45       0.654427589203E-21       0.684676292503E-01       0.228713778390E-21       0.173845745908E-21       0.187115470254E-43       0.252877737274E-21       0.905226701905E-46       0.371399876390E-37       0.139794055239E-21       0.103922629676E-58       0.464478756647E-23       0.121655053600E-48       0.274078707853E-21       0.679213531223E-41       0.178033498422E-21       0.215306599804E-45       0.222764247100E-23       0.200466210399E-22       0.196556174515E-40       0.135011054406E-39       0.304421886039E-21       0.326156592668E-21       0.914703119116E-46       0.198544469624E-21       0.137806014403E-21       0.145742244139E-21       0.173310240803E-21       0.139205961961E-53       0.251254478303E-21       0.101755354789E-23       0.273888505742E-74       0.146442027288E-21       0.271140230034E-23       0.148987576047E-21       0.390413450927E-23       0.735910572892            0.00000000000           0.710122831709E-25       0.167464868892E-21       0.112331817569E-41       0.159200794905E-21  
0.234375000000E-03        299.999396976           0.190027480345            1.13633288579           0.267364960134E-16       0.238014889863E-35       0.412816916435E-21       0.195621797856           0.242560553767E-24       0.147631963405E-20       0.646713487813E-21       0.572968775081E-21       0.267744994517E-58       0.242321835768E-65       0.210243359130E-43       0.925663288698E-45       0.195874732935E-20       0.684676292510E-01       0.685138984072E-21       0.520448490703E-21       0.167355671275E-42       0.757082473729E-21       0.813543810912E-45       0.247718461281E-36       0.419116465484E-21       0.930765967847E-58       0.138763256666E-22       0.109173750417E-47       0.820509201563E-21       0.481245302056E-40       0.533385707147E-21       0.192670935796E-44       0.669077595210E-23       0.600347434987E-22       0.654168394691E-40       0.105606000927E-38       0.912498457332E-21       0.977372252433E-21       0.274051734073E-45       0.594873835053E-21       0.412811083510E-21       0.436552303554E-21       0.519234870742E-21       0.124889129348E-52       0.752501310078E-21       0.304821785481E-23       0.161099835721E-65       0.438683891378E-21       0.812251355967E-23       0.446283106281E-21       0.116837138179E-22       0.735910572893            0.00000000000           0.212227252006E-24       0.501364197560E-21       0.999818946162E-41       0.476725316627E-21  
0.390625000000E-03        299.999476974           0.190027482618            1.13633258150           0.543320690510E-16       0.395602723567E-35       0.687099302759E-21       0.195621797856           0.403722655059E-24       0.245058932322E-20       0.107401796984E-20       0.952095488613E-21       0.445280845495E-67       0.217000209383E-64       0.580902912298E-43       0.255604192015E-44       0.324952110710E-20       0.684676292516E-01       0.113857614117E-20       0.863812082255E-21       0.462170016965E-42       0.125667275809E-20       0.225388277042E-44       0.652095868684E-36       0.697644150561E-21       0.256058117133E-57       0.229354412352E-22       0.301577096182E-47       0.136180208428E-20       0.141297920146E-39       0.886606588276E-21       0.530000877856E-44       0.111776952784E-22       0.997098217970E-22       0.132641242128E-39       0.287398314954E-38       0.151828265557E-20       0.162531156587E-20       0.455500832150E-45       0.988937471456E-21       0.686006726515E-21       0.725352126265E-21       0.863082699584E-21       0.344761330261E-52       0.124998785210E-20       0.506566175657E-23       0.302402825831E-65       0.729011248498E-21       0.134988067356E-22       0.741552847925E-21       0.193779071338E-22       0.735910572893            0.00000000000           0.351033418710E-24       0.832197756408E-21       0.275982788669E-40       0.791638191605E-21  
0.546875000000E-03        299.999527598           0.190027468153            1.13633239000           0.919717383860E-16       0.551539332587E-35       0.960009324981E-21       0.195621797857           0.564078598429E-24       0.341009074901E-20       0.149564296858E-20       0.132699315727E-20       0.149865598893E-58       0.165303702712E-65       0.112959760690E-42       0.496531200833E-44       0.451790024168E-20       0.684676292507E-01       0.158708684498E-20       0.120185514846E-20       0.898432000198E-42       0.174868177202E-20       0.440030634628E-44       0.124458679956E-35       0.974855820059E-21       0.494667532929E-57       0.317120022813E-22       0.586214322739E-47       0.189465678766E-20       0.281925551832E-39       0.123631303348E-20       0.102388043530E-43       0.157052748816E-22       0.138869883380E-21       0.243373244165E-39       0.558005927111E-38       0.212027340956E-20       0.226783851877E-20       0.635049128804E-45       0.137926169991E-20       0.956219370050E-21       0.101083886901E-20       0.120349885214E-20       0.669485360231E-52       0.174128288385E-20       0.706139734703E-23       0.221917564047E-64       0.101618233510E-20       0.188178421126E-22       0.103348369620E-20       0.269317323467E-22       0.735910572893            0.00000000000           0.485881117319E-24       0.115799544124E-20       0.536484430391E-40       0.110225492423E-20  
0.703125000000E-03        299.999544092           0.190027458545            1.13633232887           0.142669814844E-15       0.705190497911E-35       0.123102100639E-20       0.195621797857           0.723318895625E-24       0.434917749448E-20       0.190945016481E-20       0.169605426829E-20       0.173831372833E-67       0.474500234985E-64       0.184780944972E-42       0.811089129066E-44       0.575527182818E-20       0.684676292503E-01       0.202879643574E-20       0.153259453348E-20       0.146921656178E-41       0.223028014157E-20       0.723622433804E-44       0.201122981814E-35       0.125023870711E-20       0.802134629234E-57       0.401020676731E-22       0.958475705372E-47       0.241592946029E-20       0.465574038911E-39       0.158116720195E-20       0.166032597368E-43       0.202921207641E-22       0.177321308009E-21       0.433908763740E-39       0.915044999717E-38       0.271699757696E-20       0.290287142031E-20       0.811965526659E-45       0.176441565434E-20       0.122231454844E-20       0.129175465324E-20       0.153916159930E-20       0.109314688755E-51       0.222404774133E-20       0.902735558080E-23       0.498990971816E-64       0.129899680229E-20       0.240581513315E-22       0.132080758240E-20       0.342926529516E-22       0.735910572893            0.00000000000           0.615291705754E-24       0.147688023538E-20       0.877418284992E-40       0.140696129945E-20  
0.859375000000E-03        299.999554577           0.190027460538            1.13633228753           0.210271255550E-15       0.855970797290E-35       0.149962486575E-20       0.195621797857           0.881144467869E-24       0.526244791370E-20       0.231342435654E-20       0.205774869686E-20      -0.550020970516E-68       0.439211327038E-73       0.272456138563E-42       0.119375663118E-43       0.695334977809E-20       0.684676292505E-01       0.246191847238E-20       0.185418088553E-20       0.216563673615E-41       0.269882582158E-20       0.107399710149E-43       0.293384059619E-35       0.152329198244E-20       0.116985195886E-56       0.480101129832E-22       0.141245058924E-46       0.292268971929E-20       0.686665293151E-39       0.191989404586E-20       0.242155509296E-43       0.249594533428E-22       0.214881928720E-21       0.766680782187E-39       0.135537671593E-37       0.330702148235E-20       0.352840454943E-20       0.985576366867E-45       0.214302800685E-20       0.148321185370E-20       0.156690360133E-20       0.186879553486E-20       0.160815951452E-51       0.269607089821E-20       0.109560539602E-22       0.676064504103E-64       0.157631147347E-20       0.291996189563E-22       0.160231854215E-20       0.414115140178E-22       0.735910572893            0.00000000000           0.737883616169E-24       0.178710145922E-20       0.129356002072E-39       0.170423912248E-20  
0.101562500000E-02        299.999580261           0.190027470169            1.13633219123           0.299704222669E-15       0.100335405583E-34       0.176533243144E-20       0.195621797861           0.103726885361E-23       0.614480558434E-20       0.270570263598E-20       0.241064257864E-20      -0.838175205297E-67       0.376750163149E-73       0.374672706225E-42       0.163787363696E-43       0.810425838247E-20       0.684676292476E-01       0.288477631455E-20       0.216492904687E-20       0.297711302102E-41       0.315190672110E-20       0.148851530915E-43       0.399084740464E-35       0.179352927617E-20       0.158770003142E-56       0.553509502798E-22       0.194110987969E-46       0.341226909171E-20       0.938636418897E-39       0.225129680066E-20       0.328665806754E-43       0.297321644332E-22       0.251383736250E-21       0.135070087400E-38       0.187518317543E-37       0.388896144412E-20       0.414252736255E-20       0.115527670552E-44       0.251380174063E-20       0.173789802285E-20       0.183516668421E-20       0.219118325042E-20       0.220549693528E-51       0.315529796537E-20       0.128407566072E-22       0.453879816650E-64       0.184705406818E-20       0.342238352895E-22       0.187688757701E-20       0.482433959346E-22       0.735910572892            0.00000000000           0.852395465190E-24       0.208706304830E-20       0.177868543281E-39       0.199268834620E-20  
0.117187500000E-02        299.999629735           0.190027480121            1.13633200285           0.417309877335E-15       0.114688406965E-34       0.202768025043E-20       0.195621797860           0.119142021370E-23       0.699151285222E-20       0.308459941713E-20       0.275341493249E-20       0.215513272774E-66       0.582318772562E-64       0.489940481515E-42       0.213578839224E-43       0.920060929051E-20       0.684676292479E-01       0.329582218174E-20       0.246334345342E-20       0.389168476237E-41       0.358737642474E-20       0.196410572311E-43       0.515800210463E-35       0.206048079501E-20       0.204441930418E-56       0.620513267883E-22       0.253651590104E-46       0.388230142010E-20       0.121417361681E-38       0.257427107980E-20       0.423237015722E-43       0.346400799260E-22       0.286675256805E-21       0.237724737844E-38       0.247003341264E-37       0.446149351697E-20       0.474344188752E-20       0.132054206066E-44       0.287552737477E-20       0.198543851872E-20       0.209551482872E-20       0.250517591799E-20       0.287496933034E-51       0.359985780168E-20       0.146756324892E-22       0.795808020926E-64       0.211023535177E-20       0.391144318040E-22       0.214347576469E-20       0.547484003385E-22       0.735910572892            0.00000000000           0.957706505451E-24       0.237534735224E-20       0.232575082616E-39       0.227104607527E-20  
0.132812500000E-02        299.999698343           0.190027486657            1.13633174559           0.571274070268E-15       0.128618557152E-34       0.228623334254E-20       0.195621797856           0.134334304786E-23       0.779823627195E-20       0.344862680891E-20       0.308487172104E-20       0.839061138730E-60       0.148742518030E-63       0.616634843375E-42       0.267902277157E-43       0.102355713424E-19       0.684676292510E-01       0.369365333185E-20       0.274813797810E-20       0.489635001147E-41       0.400338221587E-20       0.249731045604E-43       0.640913951777E-35       0.232369490347E-20       0.252801197055E-56       0.680511695396E-22       0.319005045239E-46       0.433075433279E-20       0.150547404061E-38       0.288781726550E-20       0.523390852107E-43       0.397194363438E-22       0.320623557289E-21       0.418248035377E-38       0.313495782365E-37       0.502336218604E-20       0.532947797270E-20       0.148094051997E-44       0.322709439011E-20       0.222498737855E-20       0.234702001791E-20       0.280970260992E-20       0.360552938422E-51       0.402808418737E-20       0.164559128517E-22       0.712189360588E-64       0.236495945888E-20       0.438573977114E-22       0.240114534817E-20       0.608923623757E-22       0.735910572893            0.00000000000           0.105285404092E-23       0.265073382551E-20       0.292709018017E-39       0.253820200597E-20  
0.148437500000E-02        299.999774030           0.190027486938            1.13633145690           0.772204206863E-15       0.142097674887E-34       0.254058834485E-20       0.195621797855           0.149280003066E-23       0.856108400348E-20       0.379651035709E-20       0.340395745907E-20       0.279703007150E-58       0.381828947041E-64       0.753044851435E-42       0.325845254158E-43       0.112029344436E-19       0.684676292523E-01       0.407702550304E-20       0.301825014043E-20       0.597741939397E-41       0.439838530506E-20       0.308433409799E-43       0.771696839512E-35       0.258273939992E-20       0.302615765151E-56       0.733044585849E-22       0.389265240531E-46       0.475595165429E-20       0.180451621968E-38       0.319105126791E-20       0.626583585120E-43       0.450145673061E-22       0.353115882480E-21       0.735747504159E-38       0.386452862171E-37       0.557338840235E-20       0.589910674934E-20       0.163614711068E-44       0.356750103126E-20       0.245579540852E-20       0.258886444651E-20       0.310377854099E-20       0.438560748725E-51       0.443853309950E-20       0.181780516665E-22      -0.361364567541E-73       0.261043246935E-20       0.484413826258E-22       0.264906887167E-20       0.666474916878E-22       0.735910572893            0.00000000000           0.113704756658E-23       0.291221248180E-20       0.357462073208E-39       0.279321026992E-20  
0.164062500000E-02        299.999844583           0.190027482605            1.13633119007           0.103390568988E-14       0.155108323738E-34       0.279037622209E-20       0.195621797856           0.163957380176E-23       0.927663446517E-20       0.412719972156E-20       0.370976401474E-20      -0.999338499822E-67       0.775830583101E-64       0.897425542423E-42       0.386449812289E-43       0.120971671054E-19       0.684676292514E-01       0.444486320168E-20       0.327284930844E-20       0.712087282758E-41       0.477117272010E-20       0.372109654133E-43       0.905386041586E-35       0.283720235504E-20       0.352662710937E-56       0.777797101454E-22       0.463505739603E-46       0.515658617362E-20       0.210332124219E-38       0.348321323663E-20       0.730291588245E-43       0.505797664290E-22       0.384060884118E-21       0.129416813094E-37       0.465294750543E-37       0.611047659099E-20       0.645095181986E-20       0.178596022629E-44       0.389586215188E-20       0.267721645481E-20       0.282034742875E-20       0.338651196191E-20       0.520346668347E-51       0.482999503729E-20       0.198398908369E-22       0.199186882513E-64       0.284596894265E-20       0.528579837112E-22       0.288653605781E-20       0.719929356969E-22       0.735910572893            0.00000000000           0.120967927645E-23       0.315899170441E-20       0.426005094323E-39       0.303529731070E-20  
0.179687500000E-02        299.999901983           0.190027475754            1.13633097069           0.137443337577E-14       0.167645305910E-34       0.303526474181E-20       0.195621797858           0.178346864842E-23       0.994195758121E-20       0.443987448568E-20       0.400153674683E-20       0.169111545474E-66       0.368767079058E-64       0.104805336817E-41       0.448732178212E-43       0.129134682092E-19       0.684676292499E-01       0.479626700875E-20       0.351133912817E-20       0.831270275438E-41       0.512086118553E-20       0.440328702782E-43       0.103926128495E-34       0.308669274099E-20       0.401767452218E-56       0.814600744318E-22       0.540802851928E-46       0.553172315367E-20       0.239421336979E-38       0.376367425779E-20       0.832092227648E-43       0.564812723916E-22       0.413389463842E-21       0.227631135732E-37       0.549413487557E-37       0.663362102365E-20       0.698379846786E-20       0.193031921743E-44       0.421141526182E-20       0.288871184362E-20       0.304089015181E-20       0.365710984863E-20       0.604754865708E-51       0.520150256898E-20       0.214408352223E-22      -0.398047300555E-73       0.307099650937E-20       0.571020232884E-22       0.311295852499E-20       0.769152704200E-22       0.735910572892            0.00000000000           0.127033086020E-23       0.339050062348E-20       0.497508100380E-39       0.326386593040E-20  
0.195312500000E-02        299.999943391           0.190027468211            1.13633081456           0.181752381977E-14       0.179717221305E-34       0.327496043605E-20       0.195621797858           0.192431180418E-23       0.105546297471E-19       0.473394477227E-20       0.427867758905E-20       0.703583291937E-58      -0.205977988880E-73       0.120328324657E-41       0.511702528201E-43       0.136478102218E-19       0.684676292499E-01       0.513051743240E-20       0.373335409683E-20       0.953923384955E-41       0.544689283926E-20       0.512641900805E-43       0.117071536357E-34       0.333084064798E-20       0.448839258324E-56       0.843430539548E-22       0.620257045196E-46       0.588079446907E-20       0.267005551205E-38       0.403194055179E-20       0.929737091212E-43       0.627992849253E-22       0.441055204875E-21       0.400365798796E-37       0.638182132530E-37       0.714191091867E-20       0.749660017521E-20       0.206932257183E-44       0.451352434473E-20       0.308985270104E-20       0.325003797751E-20       0.391488200775E-20       0.690685224076E-51       0.555233264346E-20       0.229820403790E-22      -0.244151041702E-73       0.328505821662E-20       0.611718157147E-22       0.332787204320E-20       0.814089154259E-22       0.735910572892            0.00000000000           0.131877643939E-23       0.360638596433E-20       0.571159036387E-39       0.347849528620E-20  
0.210937500000E-02        299.999970132           0.190027462368            1.13633071234           0.239455699878E-14       0.191348140187E-34       0.350921027133E-20       0.195621797857           0.206195447304E-23       0.111127466169E-19       0.500904723936E-20       0.454074543799E-20      -0.516452184513E-66      -0.676985234353E-73       0.136160551364E-41       0.574384237542E-43       0.142969716697E-19       0.684676292503E-01       0.544707572062E-20       0.393875098903E-20       0.107874087301E-40       0.574902377691E-20       0.588588457070E-43       0.129731656952E-34       0.356929741234E-20       0.492901693770E-56       0.864398761888E-22       0.701011966567E-46       0.620358451598E-20       0.292445331324E-38       0.428765537039E-20       0.102121491011E-42       0.696298991134E-22       0.467034451999E-21       0.704156755709E-37       0.730963890434E-37       0.763453473465E-20       0.798848293902E-20       0.220324725907E-44       0.480168176560E-20       0.328032040228E-20       0.344746057272E-20       0.415924386075E-20       0.777125863186E-51       0.588200423945E-20       0.244666205792E-22      -0.126217599940E-73       0.348781289994E-20       0.650694332710E-22       0.353093661685E-20       0.854764857843E-22       0.735910572893            0.00000000000           0.135498186642E-23       0.380650404242E-20       0.646180610061E-39       0.367893730054E-20  
0.226562500000E-02        299.999985712           0.190027457495            1.13633065342           0.314725698751E-14       0.202579442889E-34       0.373780277035E-20       0.195621797860           0.219627244166E-23       0.116149363921E-19       0.526503646506E-20       0.478745364415E-20       0.170350054840E-66       0.786667077264E-64       0.152170047187E-41       0.635831888487E-43       0.148585530209E-19       0.684676292483E-01       0.574558137421E-20       0.412759545514E-20       0.120450314179E-40       0.602730583398E-20       0.667700728566E-43       0.141686068257E-34       0.380173550793E-20       0.533117016196E-56       0.877745534354E-22       0.782270506779E-46       0.650020842743E-20       0.315192593983E-38       0.453059825518E-20       0.110480219550E-42       0.770868068534E-22       0.491326046549E-21       0.123842695094E-36       0.827120994933E-37       0.811078307308E-20       0.845874683588E-20       0.233256982212E-44       0.507550797378E-20       0.345990499606E-20       0.363294973087E-20       0.438971762731E-20       0.863187845374E-51       0.619027124179E-20       0.258998823357E-22       0.172911952403E-64       0.367903342591E-20       0.688009729882E-22       0.372193425455E-20       0.891290842916E-22       0.735910572892            0.00000000000           0.137910055614E-23       0.399090819805E-20       0.721844724915E-39       0.386510954301E-20  
0.242187500000E-02        299.999993856           0.190027455175            1.13633062262           0.413142726158E-14       0.213471919978E-34       0.396056884414E-20       0.195621797862           0.232716647811E-23       0.120603749517E-19       0.550197256564E-20       0.501866511793E-20       0.442464703942E-58      -0.342740429615E-72       0.168248750394E-41       0.695147060406E-43       0.153309657957E-19       0.684676292461E-01       0.602584694990E-20       0.430014480069E-20       0.133009642231E-40       0.628206301495E-20       0.749509323399E-43       0.152741022297E-34       0.402784854897E-20       0.568804031663E-56       0.883826861149E-22       0.863307624705E-46       0.677108421877E-20       0.334803127697E-38       0.476068198050E-20       0.117910049359E-42       0.853025960810E-22       0.513950799413E-21       0.217801604284E-36       0.926023261976E-37       0.857005072833E-20       0.890686546266E-20       0.245799042499E-44       0.533474943342E-20       0.362850196014E-20       0.380641528814E-20       0.460593225090E-20       0.948136314450E-51       0.647711138527E-20       0.272895930744E-22       0.551696846196E-65       0.385860319111E-20       0.723768364504E-22       0.390076483913E-20       0.923865516710E-22       0.735910572891            0.00000000000           0.139146638604E-23       0.415983262451E-20       0.797484255023E-39       0.403708525358E-20  
0.257812500000E-02        299.999997506           0.190027452987            1.13633061092           0.542213861185E-14       0.224108232122E-34       0.417738211625E-20       0.195621797856           0.245456245067E-23       0.124487940811E-19       0.572010530910E-20       0.523438501057E-20      -0.545017116256E-67       0.123164487861E-71       0.184316219434E-41       0.751489252639E-43       0.157133524118E-19       0.684676292511E-01       0.628785007731E-20       0.445682752167E-20       0.145452750860E-40       0.651386334111E-20       0.833547966668E-43       0.162731562717E-34       0.424735128533E-20       0.599449271873E-56       0.883100620973E-22       0.943479767364E-46       0.701689980484E-20       0.350945265952E-38       0.497794700525E-20       0.124305981576E-42       0.944294475127E-22       0.534950731856E-21       0.383038078970E-36       0.102705612697E-36       0.901183737107E-20       0.933248285894E-20       0.258046104626E-44       0.557927461253E-20       0.378610725005E-20       0.396787913102E-20       0.480762188228E-20       0.103141795687E-50       0.674271142982E-20       0.286462922773E-22      -0.559148023727E-74       0.402651084697E-20       0.758120267622E-22       0.406744009327E-20       0.952776825049E-22       0.735910572893            0.00000000000           0.139258419700E-23       0.431367313467E-20       0.872501974768E-39       0.419508076599E-20  
0.273437500000E-02        299.999999052           0.190027452875            1.13633060447           0.712096137378E-14       0.234595833327E-34       0.438815901364E-20       0.195621797854           0.257841137845E-23       0.127804599236E-19       0.591985568598E-20       0.543475155016E-20       0.552912844308E-58      -0.117591706061E-71       0.200320854022E-41       0.804076123916E-43       0.160053444980E-19       0.684676292530E-01       0.653172335655E-20       0.459822069427E-20       0.157693349227E-40       0.672348765122E-20       0.919358077939E-43       0.171520638960E-34       0.445997989025E-20       0.624711739475E-56       0.876111213947E-22       0.102223087954E-45       0.723857665703E-20       0.363404123531E-38       0.518255383441E-20       0.129598861327E-42       0.104639022604E-21       0.554388174017E-21       0.673617409658E-36       0.112962795665E-36       0.943574742279E-20       0.973540857993E-20       0.270121915667E-44       0.580906850520E-20       0.393281103965E-20       0.411746774588E-20       0.499462328940E-20       0.111269025341E-50       0.698744951379E-20       0.299836561080E-22      -0.964398234925E-72       0.418284367732E-20       0.791264751062E-22       0.422207610121E-20       0.978404257245E-22       0.735910572893            0.00000000000           0.138311877688E-23       0.445296589413E-20       0.946376594139E-39       0.433944106966E-20  
0.289062500000E-02        299.999999659           0.190027451974            1.13633060163           0.936608059332E-14       0.245070385363E-34       0.459285846510E-20       0.195621797854           0.269868919799E-23       0.130560834964E-19       0.610179532907E-20       0.562002509477E-20      -0.712322766108E-66       0.688028217730E-72       0.216239720101E-41       0.852179584601E-43       0.162068364295E-19       0.684676292527E-01       0.675774217959E-20       0.472502584673E-20       0.169658693224E-40       0.691189620314E-20       0.100649317055E-42       0.178996244935E-34       0.466549238366E-20       0.644421650861E-56       0.863473494336E-22       0.109909527589E-45       0.743723112523E-20       0.372081630312E-38       0.537477322585E-20       0.133755138817E-42       0.116121323922E-21       0.572344755543E-21       0.118460950941E-35       0.123317697802E-36       0.984148872167E-20       0.101156106483E-19       0.282182691525E-44       0.602422560512E-20       0.406879017844E-20       0.425540336864E-20       0.516687207835E-20       0.119184266307E-50       0.721187496413E-20       0.313189240867E-22       0.657134924490E-72       0.432777965540E-20       0.823454013259E-22       0.436488444343E-20       0.100122078068E-21       0.735910572893            0.00000000000           0.136388326215E-23       0.457836468513E-20       0.101866616856E-38       0.447062381980E-20  
0.304687500000E-02        299.999999851           0.190027452412            1.13633060016           0.123464835631E-13       0.255699881026E-34       0.479148144139E-20       0.195621797855           0.281539651408E-23       0.132766641626E-19       0.626662474351E-20       0.579057599742E-20       0.250186974282E-66       0.404033687833E-64       0.232099702412E-41       0.895236240619E-43       0.163199199104E-19       0.684676292521E-01       0.696631115896E-20       0.483804438312E-20       0.181289653690E-40       0.708019457842E-20       0.109452298833E-42       0.185090304692E-34       0.486366945836E-20       0.658574074266E-56       0.845856738711E-22       0.117369830472E-45       0.761413513840E-20       0.377001371068E-38       0.555497476958E-20       0.136775549130E-42       0.129082329575E-21       0.588920381666E-21       0.208318410021E-35       0.133717721514E-36       0.102288704288E-19       0.104732070395E-19       0.294421870684E-44       0.622494181468E-20       0.419429979380E-20       0.438199422824E-20       0.532439809734E-20       0.126902103204E-50       0.741668658338E-20       0.326733997318E-22      -0.323566662811E-72       0.446157864829E-20       0.854997204864E-22       0.449616244711E-20       0.102179488146E-21       0.735910572893            0.00000000000           0.133582830575E-23       0.469061776168E-20       0.108900886742E-38       0.458918257817E-20  