 VARIABLES  =  "X"  "temp"  "u"  "rho"  "H2" "H" "O" "O2" "OH" "H2O" "HO2" "H2O2" "C" "CH" "CH2" "CH2(S)" "CH3" "CH4" "CO" "CO2" "HCO" "CH2O" "CH2OH" "CH3O" "CH3OH" "C2H2" "C2H3" "C2H4" "C2H5" "C2H6" "HCCO" "CH2CO" "CH2CHO" "N2" "H3Op" "HCOp" "C2H3Op" "CH5Op" "OHn" "On" "O2n" "CO3n" "HCO3n" "E"
 ZONE  I=528  FORMAT=POINT 
0.0 300.0 0.37603084821024857 1.122517384151192 1.02331698166135e-11 -5.003779301741457e-19 2.7374774667060147e-17 0.22014867296273838 1.6780654780114431e-19 1.3291814689290996e-17 -7.294129511285161e-19 -3.276555261626154e-19 3.9376948238335205e-18 -2.3914725129354815e-37 -1.0896456849897333e-17 -6.387789924200452e-32 -1.242775981735658e-17 0.05518632455953408 7.944117647923266e-19 -1.4475816576597857e-19 2.2699482732812404e-30 -1.8417020024810414e-17 -7.945243352336272e-38 -9.54237104178045e-28 3.7393028889166994e-18 1.4788663687283531e-18 -1.7253434552380128e-41 2.6825376558613446e-19 -5.0244448009788966e-33 7.10572654425332e-18 -6.4217311678348545e-37 -2.3316592031308082e-17 3.705400469679067e-26 0.7246650024674944 1.1277247184821045e-17 8.716476599671525e-26 -3.664412751508957e-18 -6.062598379463179e-22 -4.0325293455466105e-19 -1.9311529030449082e-17 -3.457320559806022e-19 -6.673257645161239e-18 1.0755832076575864e-17 -4.6328711231346515e-22
0.004333333333333334 300.0000000000111 0.3760308492291377 1.1225173811096314 2.2396745501701882e-10 -2.0262790995213406e-23 2.7001402680699075e-17 0.22014867292054924 -5.639457991666283e-21 9.685265063592947e-16 -5.767263175389652e-17 -2.6078458327436355e-17 2.0490966496782956e-24 3.551043657833217e-42 -1.1676799549192183e-22 -4.571754882711537e-30 -2.8387337164267667e-17 0.05518632453966905 6.298928175926324e-17 -1.5025548749470805e-17 2.36156883296582e-28 -2.265610677755681e-17 -8.350983519670622e-36 -1.0104417441519629e-25 3.742380301444278e-18 1.4803067427950482e-18 -1.691173450955176e-39 2.750283253489393e-19 -5.578102447639741e-31 7.109699694530222e-18 -4.1480214927892055e-35 -2.331627815127925e-17 5.1248835073523565e-26 0.7246650023158134 1.1277247952810472e-17 6.346673466216302e-26 -3.6649037590763275e-18 -5.927759323846747e-22 -2.0940152291440915e-17 -7.379526022344585e-23 -2.715232627798729e-17 -6.673257631109103e-18 1.0755617700315463e-17 -1.6297322556147128e-27
0.007333333333333334 300.0000000005069 0.3760308624013167 1.122517341788391 2.987027708734673e-09 -5.351974351159176e-28 2.7372735435861087e-17 0.22014867237513858 1.6940983816256832e-20 4.1899399930829966e-14 -1.8329174127227265e-17 -2.954987144345015e-16 1.547711132111473e-30 -1.6288908587261282e-43 -1.8140449527047616e-27 -1.041124496397149e-34 -2.0285633224057772e-17 0.055186324282842286 2.9123419783995653e-15 -1.6983605516168008e-18 2.3615828853520453e-28 -2.1155744957853615e-17 -1.1473480369813224e-35 -1.7866896837481398e-25 3.935399793122791e-18 1.5633875516828559e-18 2.6051840800543616e-39 6.806145578621361e-19 5.354252257682097e-32 7.362644467595121e-18 -4.098847169946878e-35 -2.3314662616028317e-17 5.124905565317534e-26 0.724665000354947 1.1277251824765557e-17 4.529997164298991e-26 -3.665237813341749e-18 -5.832688197983906e-22 -2.0940225070962658e-17 -7.83600445799146e-29 -2.715184053966588e-17 -6.67325762708133e-18 1.0755467773790747e-17 -9.543901164147425e-27
0.010333333333333333 300.00000002585176 0.37603106606321796 1.1225167338226223 4.570348035052839e-08 3.1567173852890587e-28 1.246531902575682e-16 0.22014866394277974 7.784413288079717e-20 2.11915744970992e-12 2.374555676366004e-15 -3.071596049419409e-15 1.179377942544194e-36 3.5696308136133933e-44 -3.012178036931566e-32 -2.6018972464196594e-35 1.655934672957472e-16 0.05518632031134767 1.6020706571301828e-13 9.599812901867017e-16 2.361431583422778e-28 8.839321382377117e-17 9.439027940275306e-36 -8.409114691401458e-26 1.8281237019216664e-17 7.241888235836423e-18 2.2670938116065188e-38 2.945137295843619e-17 1.2571470021657703e-31 2.6822394517707093e-17 7.883004723456585e-34 -2.3195176681672717e-17 5.124511066697666e-26 0.7246649700401122 1.127742883334129e-17 -7.14586102216505e-26 -3.665110466409761e-18 -5.6729529538054675e-22 -2.093999085399565e-17 -5.7127202864560445e-28 -2.714125207639369e-17 -6.6732576564480854e-18 1.0755237416557463e-17 -1.447896171480596e-25
0.011833333333333335 300.0000005142892 0.37603227266529754 1.1225131319216026 2.986894504135558e-07 1.9056709022041224e-26 1.5782847614250972e-15 0.2201486139946716 9.855855736878316e-19 4.1914345085008707e-11 5.2153568004695974e-14 9.234454269864767e-15 1.8606257449752096e-42 -3.590794120347503e-44 1.906011881458675e-31 9.188125389918828e-33 3.352021170473732e-15 0.05518629677215562 3.4360919123977297e-12 2.7102895441855712e-14 2.3800469944961474e-28 3.1015736485239057e-15 5.394251529782262e-33 7.280801033936382e-23 4.199123176966855e-16 1.5349716149512694e-16 6.933806374060548e-36 7.983824729002113e-16 1.3612679640518413e-30 5.909247182068982e-16 2.2810466969282127e-31 -1.940125397023943e-17 5.139501173018767e-26 0.7246647904982735 1.1280870719661187e-17 -9.099647993360268e-25 -3.651447564794925e-18 -3.8129171618914487e-22 -2.0936911177894073e-17 -1.3451936566455647e-26 -2.707828503306391e-17 -6.6732575863725944e-18 1.0753990395301428e-17 -9.434048173308177e-25
0.012583333333333335 300.00000534086615 0.3760361514530195 1.1225015532738056 1.111088880688894e-06 5.613898410058285e-25 1.2184651362860531e-14 0.2201484535218567 7.610582686850041e-18 4.3305591261903986e-10 5.817774588748677e-13 2.557351515790361e-13 6.269773506404637e-48 -3.758164039254462e-45 1.7117235346495744e-29 7.167506061136534e-31 3.356596574997231e-14 0.05518622101448282 3.83677064692427e-11 3.8898320666977256e-13 4.079554520146672e-28 4.529431083877758e-14 6.056801934549724e-31 8.710807338436595e-21 6.142451202521291e-15 2.073543423260002e-15 7.561887926713292e-34 1.1265943271266051e-14 -9.527085256164136e-28 8.908215172368936e-15 2.3772306383746292e-29 4.187931503449181e-17 6.024184434018954e-26 0.7246642139020103 1.131524153080218e-17 -3.671656425241778e-24 -3.443337622625348e-18 2.2116943650163357e-21 -2.0916069603851897e-17 -1.0631652614059713e-25 -2.6881207251949046e-17 -6.6732537528176775e-18 1.0745034164035017e-17 -3.482980387521287e-24
0.012958333333333336 300.00003039207684 0.37604336933854926 1.1224800076533146 2.6186122908787e-06 6.0908640536725734e-24 5.2751339254708534e-14 0.22014815534795917 3.3034120818824543e-17 2.4530985885763894e-09 3.5316143340025174e-12 1.743051341542339e-12 4.763270961497611e-53 1.2113962634219121e-40 4.464236392336058e-28 1.7407677806268165e-29 1.8779961512701298e-13 0.05518607964321322 2.333445918927018e-10 2.98411428761244e-12 5.7349016902697216e-27 3.5125049129986187e-13 2.0619488621118252e-29 3.4478343473948366e-19 4.8341451545634404e-14 1.515688053288694e-14 2.4832449044113676e-32 8.5131503071315e-14 2.177536381108038e-25 7.235317049680872e-14 7.522976920025673e-28 5.521259117074798e-16 3.0507819938466826e-25 0.7246631437010215 1.1495395650476829e-17 -5.810020010926576e-24 -1.8245724619018553e-18 2.1379799655657803e-20 -2.0841413824109292e-17 -4.546844717461293e-25 -2.6534893386466767e-17 -6.673220911972657e-18 1.0706750522491666e-17 -8.101984659758069e-24
0.013145833333333336 300.00010166077703 0.376051923379618 1.1224544746364775 4.394230638457254e-06 2.988028587392199e-23 1.3974570865537953e-13 0.22014780307285525 8.885006129315526e-17 8.174383836520745e-09 1.2483950526781179e-11 6.3440343923730184e-12 7.550723651903045e-54 1.3729477828399809e-34 4.253494054967661e-27 1.554535599797395e-28 6.235932237128436e-13 0.05518591115801744 8.262412891858489e-10 1.2938099202931188e-11 6.284079300221454e-26 1.5370436844731337e-12 2.4259187749888174e-28 5.343125910245415e-18 2.1448336904962107e-13 6.300339042802532e-14 2.8613256209593696e-31 3.642197903187733e-13 8.24541125758782e-24 3.3002037068890934e-13 8.28959536721488e-27 2.8039569867712334e-15 2.8442891580292853e-24 0.7246618825028227 1.2012526600194465e-17 5.233718884238588e-25 4.873595219284318e-18 9.708319074918867e-20 -2.0689684032754426e-17 -1.199257177523296e-24 -2.6166196260310704e-17 -6.67308569867023e-18 1.0606842983432664e-17 -1.340642913592894e-23
0.013333333333333334 300.00039572437726 0.3760684081185536 1.1224052725003846 7.774696454080684e-06 1.9435912267954427e-22 4.164569482467956e-13 0.2201471281041334 2.863050963214356e-16 3.168741680863037e-08 5.1694101036233775e-11 2.666933159646063e-11 2.7658665252489563e-52 7.0328633667007415e-34 5.657779297165918e-26 1.940232087824608e-27 2.41585063623455e-12 0.05518558318304188 3.42780059440566e-09 6.716339308579083e-11 9.631497943551422e-25 8.06005380149345e-12 3.875600384870596e-27 8.605515669042034e-17 1.1420350695498825e-12 3.122593156540459e-13 4.72345314298336e-30 1.8632545402536188e-12 2.3959725190463765e-22 1.811157800544921e-12 1.2244227364236228e-25 1.6805199868411286e-14 4.1773879731614836e-23 0.7246594787395882 1.4164095101828182e-17 4.691360022737926e-23 4.406053201421355e-17 5.210068321052993e-19 -2.022909038810003e-17 -3.747884209188754e-24 -2.5592160101463973e-17 -6.67231134726963e-18 1.0184444333212547e-17 -2.3202238131435358e-23
0.013500000000000002 300.0014286788365 0.376096260710672 1.1223221504395124 1.3344711578057292e-05 1.3392333971615475e-21 1.1687781285818039e-12 0.22014600024620795 1.1002753041139797e-15 1.139739929032467e-07 1.9780664474321634e-10 1.0289961817703732e-10 2.3507071912950153e-51 7.817063053929095e-34 7.705800934325986e-25 2.6832514148879455e-26 8.696507873504827e-12 0.05518501864768572 1.313972087469237e-08 3.1783372602783367e-10 1.2833418424834738e-23 3.850575808432796e-11 5.453601874502595e-26 1.1847952622978612e-15 5.5352316413985985e-12 1.4146858941553748e-12 8.470915493088527e-29 8.696773585590333e-12 5.9193916765478495e-21 9.031904382744309e-12 1.5572414364112058e-24 9.058167590146219e-14 5.454080449619497e-22 0.7246555085891319 2.1785420030413476e-17 2.3593633517783777e-22 2.3846314463577667e-16 2.5348431703280032e-18 -1.9075493356880614e-17 -1.393565439636011e-23 -2.504794870506257e-17 -6.668569422085623e-18 8.802496172273026e-18 -3.9000111911418557e-23
0.013666666666666667 300.0053301502282 0.37614906235180096 1.122164605313327 2.3390479539889763e-05 1.2199815301539772e-20 3.378009792995455e-12 0.22014390433217293 7.26796664314624e-15 4.2373609540829723e-07 7.829232101159154e-10 4.098765042229288e-10 4.843701358062504e-51 1.673212445393918e-34 1.634210228652688e-23 6.59558076791445e-25 3.238004948623757e-11 0.05518391372174904 5.210082523064642e-08 1.5595681436542925e-09 1.8724329127194801e-22 1.9075304896876283e-10 9.185996380211067e-25 1.603433738655154e-14 2.782594666101689e-11 6.6424158009020836e-12 2.700136853171739e-27 4.208361427407192e-11 1.4181115113344642e-19 4.673032938480774e-11 2.1141250244170988e-23 5.06549529292064e-13 7.623897294155381e-21 0.7246483125269251 5.081778530947211e-17 1.0118543229029988e-21 1.271075288783604e-15 1.2782413020109954e-17 -1.61245444703029e-17 -7.88857445302132e-23 -2.5482956428663012e-17 -6.649213598741919e-18 4.542138688671413e-18 -6.969415436223094e-23
0.013833333333333333 300.0200578899498 0.3762539953867365 1.1218516461437669 4.150975168392133e-05 1.471369148018711e-19 9.867065522540025e-12 0.22013987686885927 7.672615747927567e-14 1.5898588924711275e-06 3.126179289961937e-09 1.6457212167478993e-09 -1.746403055790764e-51 -1.7209985597476336e-35 5.578230930619641e-22 2.6136205816278343e-23 1.2167610139090563e-10 0.0551816037896384 2.0840712662013225e-07 7.710882775950734e-09 3.0820733321586048e-21 9.519619628631868e-10 2.225628853458373e-23 2.070764447485469e-13 1.409304256187636e-10 3.143335082329019e-11 1.3862576868588355e-25 2.0520885996937343e-10 3.3987202875668374e-18 2.4354978889308505e-10 2.9260131117133457e-22 2.8519271532532447e-12 1.0795666215742656e-19 0.7246351971332459 1.6139815022471027e-16 4.218599161909266e-21 6.756259561485273e-15 6.491648948682386e-17 -9.539302949898374e-18 -4.429084617729052e-22 -3.125710373088473e-17 -6.548869174218284e-18 -4.902970078467103e-18 -1.525650042511038e-22
0.013916666666666666 300.0427342702192 0.3763518076394965 1.121560081616072 5.603084023381859e-05 7.656643857132253e-19 1.783243212308436e-11 0.22013627669098737 4.11798872906114e-13 3.381778021836693e-06 6.938290401020507e-09 3.6654229586432516e-09 -6.750000047008682e-51 -3.618800342205499e-35 6.020341821474295e-21 2.9825202986268243e-22 2.5891807849226476e-10 0.0551793181981051 4.6309050847587236e-07 1.9906216726659976e-08 1.9311465711228115e-20 2.473552909887844e-09 2.1766546243128666e-22 1.0605312083769696e-12 3.702652744079404e-10 7.86161045203167e-11 1.9006363214100827e-24 5.24462280522691e-10 3.3025306110434283e-17 6.534415316235627e-10 1.329915408020587e-21 8.103750237861619e-12 4.985721942139978e-19 0.7246244945055298 3.330593949621011e-16 9.753413240634942e-21 1.8367967139645942e-14 1.707937310985602e-16 -4.83400204485472e-18 -1.07012840984393e-21 -2.6547517060533982e-17 -6.338907986131331e-18 -1.0171751943116712e-17 -1.7162062161867066e-22
0.013958333333333333 300.0658517112693 0.3764260097263042 1.1213389967371308 6.548002656378922e-05 2.086265805161555e-18 2.4710213517659516e-11 0.22013362914992515 1.1037085069989023e-12 5.2064352601725485e-06 1.099204809502881e-08 5.820355457394306e-09 -5.514432808846963e-50 -6.720245114597104e-35 2.4434044239994932e-20 1.2296111016084289e-21 3.984706660432165e-10 0.05517750621350614 7.342388632017137e-07 3.50430974132499e-08 6.421562027410203e-20 4.3742815200397825e-09 9.272495216140664e-22 2.8000632197470246e-12 6.600832457395166e-10 1.353084175171772e-10 8.90689140226538e-24 9.166588166524694e-10 1.2658751771980754e-16 1.1826939352503314e-09 3.2000557161203056e-21 1.5296191595107165e-11 1.2109825191880973e-18 0.7246173843689394 5.091563763566985e-16 1.6041626370163163e-20 3.3560575915166506e-14 3.047184724762786e-16 -2.6174936191534333e-18 -1.427126910291321e-21 -2.810624806896662e-17 -6.065254543793736e-18 -1.2240131562378346e-17 -2.1352328038044947e-22
0.013999999999999999 300.1049679003088 0.3765294584407886 1.121030917049005 7.682785639577157e-05 5.9096679235498246e-18 3.491982117445569e-11 0.22013001510485908 2.904798133110874e-12 8.291792348646803e-06 1.8090543487427144e-08 9.603972137096412e-09 9.177449008688964e-49 9.444107628855331e-35 1.0133878908689943e-19 5.1454022502374704e-21 6.339281473286933e-10 0.05517489838211824 1.209504297788937e-06 6.513762233447251e-08 2.494412259291414e-19 8.173273726415152e-09 4.323972519894884e-21 7.574753465541102e-12 1.2449892414252793e-09 2.450248555938421e-10 4.3241896519831375e-23 1.6897558375789179e-09 4.596137737445134e-16 2.270219635044842e-09 8.328449691597458e-21 3.08262192870467e-11 3.1609569975868365e-18 0.7246086501943586 8.086650860119793e-16 2.763233412290356e-20 6.512671951876995e-14 5.751902728292231e-16 -1.0017407648370943e-18 -1.2884898026329154e-21 -2.8926792608084625e-17 -5.499248157461167e-18 -1.3474248623660252e-17 -2.5883666493090214e-22
0.014041666666666664 300.17113063183893 0.37667793043590486 1.1205890496496462 9.045520900571387e-05 1.7321084407076128e-17 5.008407652329093e-11 0.22012491070249307 7.64932251119963e-12 1.3508308226231209e-05 3.0519762855978126e-08 1.6245909898822513e-08 5.777246594948317e-47 3.248723168307948e-33 4.3070010481467433e-19 2.200676326567729e-20 1.0302842024705194e-09 0.05517104887795053 2.0424690018782186e-06 1.249635828444286e-07 1.0897586773276525e-18 1.5763652906257183e-08 2.1415803529724238e-20 2.0740254659533674e-11 2.425289768071226e-09 4.5733625854013787e-10 2.167899758856316e-22 3.2135123316680294e-09 1.6531569296820342e-15 4.50461593222985e-09 2.303573289676855e-20 6.435461749454673e-11 8.613370582896695e-18 0.7245978351664125 1.317809650142712e-15 4.884624549366016e-20 1.3070597023838787e-13 1.121051107862734e-15 -2.391903500595442e-19 -6.860887106742817e-22 -2.840837290505524e-17 -4.331418124236378e-18 -1.3905338818970517e-17 -2.998168093987755e-22
0.014062499999999999 300.22135363622533 0.37677871637377164 1.1202892991198274 9.829555753264502e-05 3.1096364512274867e-17 6.043564052792343e-11 0.22012146950343017 1.2913923205356198e-11 1.7467474094554167e-05 4.023449638117139e-08 2.1447390018333292e-08 4.229312578466244e-46 1.3508015841426322e-32 9.35995415427115e-19 4.791536993680544e-20 1.3291903117712309e-09 0.05516838668134207 2.694007506580785e-06 1.770360778257137e-07 2.470200871737089e-18 2.2397034961824668e-08 5.1039632377969896e-20 3.5966874262884776e-11 3.4658841606635804e-09 6.379266465643692e-10 5.16499924077255e-22 4.5301012001533716e-09 3.4048568662777733e-15 6.505213247321369e-09 3.998916088720952e-20 9.568697981945307e-11 1.4684039701692873e-17 0.7245914089875791 1.7057746481873987e-15 6.62644318696616e-20 1.8998968363010053e-13 1.601948028027002e-15 -8.350978929223652e-20 -3.49880467837414e-22 -2.7783744991161796e-17 -3.2865640525245143e-18 -1.3957301715386e-17 -3.1549689252680838e-22
0.014083333333333331 300.28891168482716 0.37690516099019894 1.1199134630631926 0.00010692282692756928 5.613944032287106e-17 7.330954245112953e-11 0.22011715485896294 2.1746897843492166e-11 2.2793094429658486e-05 5.359565928257153e-08 2.8611533379074615e-08 2.9564519939100264e-45 5.277916354499503e-32 2.046016538201428e-18 1.0492723769876352e-19 1.7290662298990423e-09 0.05516501090207526 3.590609218116358e-06 2.548172474442332e-07 5.761233977432697e-18 3.233648825699699e-08 1.2378078844601654e-19 6.31796377182982e-11 5.035801704092922e-09 9.029082608488983e-10 1.2468979634179302e-21 6.485540574784587e-09 7.012241090635675e-15 9.560123060250404e-09 7.171249082155078e-20 1.4516564235361755e-10 2.5559061821428252e-17 0.7245841343303238 2.2291535123681428e-15 9.118572945382396e-20 2.811978948247172e-13 2.3270020307056524e-15 -2.36203681105052e-20 -1.4168493422147135e-22 -2.6918784823621744e-17 -1.6946683174293122e-18 -1.394159624697977e-17 -3.3406670974419854e-22
0.014104166666666664 300.3797682846896 0.377065183617442 1.1194381831848133 0.00011641547083521496 1.0198109346595033e-16 8.932932270918703e-11 0.22011167872261997 3.655188119823198e-11 2.9955909895085184e-05 7.197053674421457e-08 3.8476980638570596e-08 2.0962686374564684e-44 2.0630161262936296e-31 4.492628948869636e-18 2.307531867999606e-19 2.26310748192672e-09 0.055160702561242475 4.8243284075416225e-06 3.7098543911416097e-07 1.3717879453140337e-17 4.722571770198325e-08 3.039101341636163e-19 1.1176878959381516e-10 7.403971673573877e-09 1.2916724025477114e-09 3.0396354844760055e-21 9.389462851666963e-09 1.443227056628614e-14 1.422434871681818e-08 1.328404357994396e-19 2.232891823163436e-10 4.520822554075186e-17 0.7245758593143807 2.934910168414542e-15 1.2675318840826695e-19 4.215054066771415e-13 3.419515750431219e-15 -4.851530009301689e-21 -4.6120600799032133e-23 -2.5919865204126224e-17 7.2745997962417855e-19 -1.3886302529268052e-17 -3.507997749743233e-22
0.014124999999999999 300.5019263848193 0.3772693237797235 1.1188324559816376 0.00012685947177470055 1.8619875443724228e-16 1.0927892711536215e-10 0.22010464826137244 6.128657990090178e-11 3.9588098036979794e-05 9.72380233053995e-08 5.2058640194111815e-08 1.4917330056904692e-43 8.047273935783839e-31 9.884812584401394e-18 5.08430191615648e-19 2.9748799729768237e-09 0.05515517232895428 6.521690238223721e-06 5.444566047203656e-07 3.3115326495548506e-17 6.952184517925341e-08 7.517282569003349e-19 1.9846210049938776e-10 1.097561477208127e-08 1.8619514280353996e-09 7.454990502671775e-21 1.3701202410085054e-08 2.967335858623147e-14 2.1344390491687936e-08 2.544229364230328e-19 3.466175889110572e-10 8.095956662411673e-17 0.7245663953001494 3.886069704330932e-15 1.774480887994672e-19 6.373083448683771e-13 5.064391617287872e-15 -7.021566287153916e-22 -1.0737441771972441e-23 -2.4866331611666624e-17 4.411239081453424e-18 -1.3799263632815539e-17 -3.6724346577741637e-22
0.014145833333333331 300.6661179964839 0.3775316195283584 1.1180551303712642 0.0001383489153885112 3.413461041286672e-16 1.3414817837875602e-10 0.22009552681989708 1.0241564942647051e-10 5.2538034394193904e-05 1.3197929411076706e-07 7.074951368713797e-08 1.0654314436885728e-42 3.1372133132959274e-30 2.1736962119320596e-17 1.1196224127998744e-18 3.921257749731278e-09 0.055148037790369614 8.856505014739738e-06 8.034380341202842e-07 8.05863219206496e-17 1.0289447326301007e-07 1.8656156482389022e-18 3.529827029934364e-10 1.6360958948099664e-08 2.698313420013198e-09 1.8337349099235118e-20 2.010180170527098e-08 6.092630888015098e-14 3.221064438226252e-08 5.045638372455227e-19 5.412576091454466e-10 1.4640130181852578e-16 0.724555506448797 5.167066431135637e-15 2.4968083235851035e-19 9.691550092823105e-13 7.538239894093956e-15 -8.200592532237867e-23 -2.2498962409419572e-24 -2.3774492552304e-17 1.0012077667822408e-17 -1.3675981011896579e-17 -3.8335272709419226e-22
0.014166666666666664 300.8867216048469 0.3778707756735499 1.1170516252248726 0.00015098653397917108 6.278432779590355e-16 1.651938686151588e-10 0.22008358045496715 1.7039908133559419e-10 6.994313951751179e-05 1.7973902072248857e-07 9.645874177589145e-08 7.623573105874545e-42 1.2213109642416368e-29 4.765875323248079e-17 2.4584560192818598e-18 5.176058269978319e-09 0.05513879351088971 1.2067365575540143e-05 1.1899618201452156e-06 1.9679094512114009e-16 1.528173325820576e-07 4.6300989172820125e-18 6.27995427304206e-10 2.447823328209402e-08 3.9245470002317544e-09 4.512253285061476e-20 2.9600279142504545e-08 1.248796562417034e-13 4.8788744449325096e-08 1.0371557705070786e-18 8.483361578537044e-10 2.6685395309421427e-16 0.7245428962367455 6.890797427839322e-15 3.5265497515034047e-19 1.479291490422132e-12 1.125357697324422e-14 -1.8557142337662034e-23 -1.0511952010015596e-24 -2.2639648543007433e-17 1.852482766659473e-17 -1.3505017090142254e-17 -3.9872681491110804e-22
0.014187499999999997 301.1829787224085 0.378311712941335 1.1157496573643364 0.00016488417539659708 1.158139776829669e-15 2.0402344874389026e-10 0.22006780490244968 2.819781539545466e-10 9.332639072767296e-05 2.4538290575471726e-07 1.3179761964818785e-07 5.453581141684816e-41 4.7405404420226915e-29 1.0395296754708679e-16 5.371381570290911e-18 6.834513298475297e-09 0.05512677175784107 1.6481471201557946e-05 1.7665997677574072e-06 4.804920393932774e-16 2.2744249498041218e-07 1.146029775302919e-17 1.1165199123506767e-09 3.67076635052861e-08 5.72167501969317e-09 1.1085889793200348e-19 4.369009139335446e-08 2.554165282972426e-13 7.406998119827399e-08 2.2086650747615272e-18 1.3325779151089702e-09 4.897725231009577e-16 0.7245281901180245 9.207915810041623e-15 4.996421652971017e-19 2.263185137072597e-12 1.682312871304649e-14 -1.1873338930128044e-23 -1.0714187774126337e-24 -2.144155238651362e-17 3.1457969283043587e-17 -1.327047894594513e-17 -4.125505965625011e-22
0.01420833333333333 301.5806003599898 0.3788876140465796 1.1140537416444276 0.00018016313123914453 2.142298015733669e-15 2.5271218698577213e-10 0.22004682619075333 4.636202118145096e-10 0.00012472347988069286 3.355865303946268e-07 1.803281507460932e-07 3.89353145273603e-40 1.8318242322948854e-28 2.2511419109601485e-16 1.1655075539767686e-17 9.01878244649899e-09 0.055111091209074786 2.2546940603692333e-05 2.6263789819528403e-06 1.1695850492703974e-15 3.388864222357498e-07 2.8226840102631833e-17 1.982277207055091e-09 5.512097034575225e-08 8.354071902666426e-09 2.7153762850714783e-19 6.457876790431818e-08 5.210415413526296e-13 1.1260054503143013e-07 4.8603289595688394e-18 2.0957100340758534e-09 9.047171219478263e-16 0.7245109133968756 1.2319106885551081e-14 7.0988627966064815e-19 3.4670745309803687e-12 2.51523273359595e-14 -9.608041901985126e-24 -1.2420239418971328e-24 -2.0138427821865805e-17 5.109579110070682e-17 -1.2952645201853116e-17 -4.2329671754359017e-22
0.014229166666666664 302.1138766150654 0.37964261159839585 1.1118382162484532 0.00019695422746609958 3.974712069045549e-15 3.139710373062923e-10 0.22001876609360202 7.566025597939108e-10 0.00016684908933369734 4.5950290343068375e-07 2.468912912763886e-07 2.7712236199863886e-39 7.038309359206654e-28 4.83109655219371e-16 2.5073596193930127e-17 1.1884884199988982e-08 0.05509059041160334 3.087641109943551e-05 3.907363508123071e-06 2.831285410706898e-15 5.051109678243886e-07 6.904638395233303e-17 3.512307403204218e-09 8.282188219172167e-08 1.2207167776333559e-08 6.623900170878284e-19 9.552349959407276e-08 1.0595668015903762e-12 1.7127774290741533e-07 1.1002136949404364e-17 3.297331841967658e-09 1.682165371320128e-15 0.7244904632963978 1.649145943800065e-14 1.0114892554959011e-18 5.314598607837436e-12 3.7570479463338904e-14 -8.080428070816573e-24 -1.4503913294170027e-24 -1.864777203801702e-17 8.089147896528993e-17 -1.2528446519581286e-17 -4.2799438150922665e-22
0.014249999999999997 302.82842645813605 0.38063529378024746 1.1089385850155538 0.0002153975385241145 7.400899552256583e-15 3.913929698472099e-10 0.2199810612799548 1.2243531930459453e-09 0.00022331208803836174 6.296726585228489e-07 3.3803332831846154e-07 1.9658412990223005e-38 2.6870358107967038e-27 1.025808367324975e-15 5.3403282903415846e-17 1.563179953645996e-08 0.055063742225103705 4.23054530505444e-05 5.813979292902939e-06 6.801960996561116e-15 7.526537403517951e-07 1.6744279217653676e-16 6.207671219738832e-09 1.2444837062284857e-07 1.7841566018651648e-08 1.6081695853002867e-18 1.4131875678698867e-07 2.146613812905589e-12 2.605416218745578e-07 2.5468691723872923e-17 5.187243279614549e-09 3.150071511821833e-15 0.7244660742731424 2.2080747989071844e-14 1.445861653395771e-18 8.147000068173732e-12 5.6013555077327405e-14 -6.886175568126924e-24 -1.6715520010585546e-24 -1.68048067573593e-17 1.2605338458132194e-16 -1.1972788727483168e-17 -4.2056463248660938e-22
0.01427083333333333 303.7847464069368 0.38194323225565496 1.1051411006789194 0.0002356415311310526 1.3842794085474287e-14 4.898230224849739e-10 0.219930222591019 1.962831183905129e-09 0.00029889010966414615 8.632627372621986e-07 4.6254675385241806e-07 1.3908887454994298e-37 1.019249261299918e-26 2.1522522248693956e-15 1.1248480908388489e-16 2.0514303026220343e-08 0.05502854515765655 5.797009078337809e-05 8.647969713121518e-06 1.6187756075867292e-14 1.1205517338962825e-06 4.0191135106331844e-16 1.0938717213366771e-08 1.8690752375777279e-07 2.607011770819651e-08 3.884826813910534e-18 2.0899935076927525e-07 4.3297024866691894e-12 3.9614593223190346e-07 5.991085854027148e-17 8.155186321591122e-09 5.947425753103128e-15 0.7244367759880574 2.9562830003294565e-14 2.074726310161972e-18 1.2483414894454892e-11 8.327375539809007e-14 -6.309310552640901e-24 -2.016644841416689e-24 -1.569944969943299e-17 1.9441333281517634e-16 -1.1261322232810721e-17 -4.296402514825852e-22
0.014291666666666664 305.0627285719203 0.3836687533196341 1.10017081255642 0.0002578413760412068 2.6042673788025912e-14 6.159267620919917e-10 0.21986151887884375 3.1149732101145352e-09 0.000399873034841289 1.1837478066563468e-06 6.321328227701058e-07 9.833563006597943e-37 3.8443983169983284e-26 4.458002331624813e-15 2.3416962899005726e-16 2.686264989959354e-08 0.05498238766962943 7.940835491770163e-05 1.2852884133880637e-05 3.8101271984905255e-14 1.665904910523809e-06 9.533984421943373e-16 1.920858928062443e-08 2.8043932350243053e-07 3.8066549242350014e-08 9.339624240478373e-18 3.088436406172232e-07 8.688132630313446e-12 6.01765563270092e-07 1.423568429334415e-16 1.2806689321926138e-08 1.1335828116987166e-14 0.7244013442641044 3.95800914249557e-14 2.9913919242038998e-18 1.911046763844816e-11 1.2333281607976726e-13 -5.955601452811347e-24 -2.431832762367672e-24 -1.4560876006430616e-17 2.9770074669045856e-16 -1.0375051130599279e-17 -4.355040093435197e-22
0.014312499999999997 306.7673068063574 0.3859461607016086 1.0936788782279918 0.00028215609027689315 4.9318628016341714e-14 7.790818122473342e-10 0.21976856931704358 4.890716902689855e-09 0.0005344808067834735 1.6231843110684472e-06 8.621705883198255e-07 6.950971303561879e-36 1.4430218953291222e-25 9.1113744222197e-15 4.818586102596587e-16 3.511516697594415e-08 0.054921882677794916 0.00010869098372975756 1.9077163556404664e-05 8.856646427313654e-14 2.4716253839435863e-06 2.2318560647168138e-15 3.359543828855974e-08 4.201344085597319e-07 5.551642012840081e-08 2.236223429803716e-17 4.557851296075567e-07 1.7331255266831225e-11 9.127877312924867e-07 3.396724793495086e-16 2.007732246463617e-08 2.1807947172519545e-14 0.7243582472521626 5.3014090168771056e-14 4.339353370207998e-18 2.921380767992619e-11 1.817984388800682e-13 -5.780787929260722e-24 -2.913956224436106e-24 -1.339157612308942e-17 4.533890445666466e-16 -9.306782924457414e-18 -4.374023456192122e-22
0.014322916666666664 307.83152170120457 0.3873583616209014 1.089691629029171 0.00029519238660771226 6.865147249310687e-14 8.798423283155001e-10 0.21970966513974205 6.12975237426575e-09 0.0006185803848263709 1.9045221859651437e-06 1.0076329275423277e-06 1.8942481670458423e-35 2.832381105932925e-25 1.3043217503650369e-14 6.924353885072858e-16 4.019282037512517e-08 0.05488453291466207 0.00012735313328801964 2.330940143150986e-05 1.3542227905774761e-13 3.018155555609901e-06 3.4247900983364972e-15 4.475511895171218e-08 5.157975096894201e-07 6.721464006272229e-08 3.4848936563078576e-17 5.552271230468477e-07 2.481037980590034e-11 1.1280267939290045e-06 5.304177025031975e-16 2.5245496267927822e-08 3.0649858116889825e-14 0.7243330527980782 6.149733763860626e-14 5.2632823484388394e-18 3.625113425122645e-11 2.2095146888656366e-13 -5.7400270979323044e-24 -3.177412750745623e-24 -1.2764193490223506e-17 5.608294363125572e-16 -8.707577324812376e-18 -4.355593393250972e-22