 VARIABLES = X temp u rho H2 H O O2 OH H2O HO2 H2O2 C CH CH2 CH2(S) CH3 CH4 CO CO2 HCO CH2O CH2OH CH3O CH3OH C2H C2H2 C2H3 C2H4 C2H5 C2H6 HCCO CH2CO HCCOH N NH NH2 NH3 NNH NO NO2 N2O HNO CN HCN H2CN HCNN HCNO HOCN HNCO NCO N2 AR C3H7 C3H8 CH2CHO CH3CHO
ZONE I=0352, F=POINT
0.195312500000E-04        298.000000000           0.187936517793            1.14395697935           0.175291091784E-08       0.320874455466E-32       0.184876115857E-19       0.195621797515           0.138994428424E-22       0.227816535353E-14       0.394814815092E-18       0.524062291401E-18       0.399849375957E-54        0.00000000000           0.185356538075E-40       0.630833028933E-42       0.234400713209E-19       0.684676291296E-01       0.609811345320E-16       0.110943243850E-18       0.317519684053E-40       0.805466547043E-20       0.924824005929E-43       0.396678395197E-31       0.107250785391E-20       0.220913371338E-54       0.687546428076E-21       0.207174123823E-45       0.283642180682E-20        0.00000000000           0.119367255742E-20       0.425157392917E-41       0.272511545355E-21       0.270531797932E-22       0.542811126531E-27       0.468630667768E-35       0.167056134240E-19       0.588665298123E-21       0.339277716248E-42       0.841211113620E-21       0.399083193418E-21       0.212518912180E-21       0.263395838447E-21       0.382001624801E-51       0.344997311808E-21       0.136116756229E-23        0.00000000000           0.198984120784E-21       0.365047146931E-23       0.212432804424E-21       0.933069927205E-23       0.735910571602            0.00000000000           0.302228185193E-25       0.232179619751E-21       0.128451850281E-38       0.245409055206E-21  
0.585937500000E-04        298.000000000           0.187936518432            1.14395697542           0.557884080773E-08       0.322202160729E-31       0.636086917869E-19       0.195621796768           0.438076650563E-22       0.828128964678E-14       0.145519874169E-17       0.193396143981E-17       0.416108346316E-53       0.809261464649E-58       0.202791875517E-39       0.722262507519E-41       0.851797158640E-19       0.684676288667E-01       0.224831435989E-15       0.432397328163E-18       0.350119329530E-39       0.306954150256E-19       0.942030421575E-42       0.147326383631E-30       0.320949788779E-20       0.207748548594E-53       0.205240813223E-20       0.198553189547E-44       0.863909723259E-20        0.00000000000           0.355947995087E-20       0.429549606786E-40       0.814380674397E-21       0.808874201061E-22       0.162549266573E-26       0.211676482172E-34       0.572523312648E-19       0.176172713971E-20       0.340610925044E-41       0.250416510982E-20       0.119145704820E-20       0.635263608352E-21       0.788030742238E-21       0.392652839729E-50       0.103097553416E-20       0.407140858650E-23        0.00000000000           0.595214227887E-21       0.109200290921E-22       0.634920796343E-21       0.279122517122E-22       0.735910568787            0.00000000000           0.903123104982E-25       0.693262005699E-21       0.117270059027E-37       0.733283502597E-21  
0.976562500000E-04        297.999999999           0.187936519121            1.14395697085           0.976599463710E-08       0.104238542653E-30       0.119738487036E-18       0.195621795950           0.785313894471E-22       0.164901294377E-13       0.294075732724E-17       0.391345862102E-17        0.00000000000            0.00000000000           0.694637199031E-39       0.257706826091E-40       0.169538776694E-18       0.684676285790E-01       0.454502639492E-15       0.929488392255E-18       0.125582343082E-38       0.667583049492E-19       0.293585381572E-41       0.346717804501E-30       0.533676791277E-20       0.614620533512E-53       0.338723163231E-20       0.606564055207E-44       0.147140239764E-19        0.00000000000           0.586738601008E-20       0.133180950946E-39       0.134700946876E-20       0.133925008130E-21       0.269994944495E-26       0.560935404681E-34       0.107358114929E-18       0.292222392131E-20       0.110191166007E-40       0.410788034191E-20       0.196683670171E-20       0.105131601623E-20       0.130634723252E-20       0.122461471361E-49       0.170523194404E-20       0.674620050127E-23        0.00000000000           0.986348200445E-21       0.180975658966E-22       0.105046694637E-20       0.462596880906E-22       0.735910565705            0.00000000000           0.149361002147E-24       0.114478931675E-20       0.377438236598E-37       0.121255848000E-20  
0.136718750000E-03        298.000000000           0.187936519838            1.14395696613           0.143248209956E-07       0.238282310839E-30       0.188307472189E-18       0.195621795059           0.119922920889E-21       0.273917878612E-13       0.495618696968E-17       0.660413029676E-17       0.498748525904E-53        0.00000000000           0.169184476692E-38       0.653371496296E-40       0.281470477217E-18       0.684676282656E-01       0.766240310563E-15       0.166521790858E-17       0.377257668482E-38       0.120351801030E-18       0.644349834278E-41       0.730642146383E-30       0.746210786274E-20       0.129502887492E-52       0.467360217681E-20       0.189847406850E-43       0.301632672978E-19        0.00000000000           0.825732694749E-20       0.288812708891E-39       0.186469242320E-20       0.185675953805E-21       0.376154061719E-26       0.121822040118E-33       0.168209065269E-18       0.406220810205E-20       0.251887513212E-40       0.560928963786E-20       0.271469431632E-20       0.145662602040E-20       0.181444499221E-20       0.267339556997E-49       0.236067364114E-20       0.936360333191E-23       0.584677860219E-58       0.136922718087E-20       0.251260419225E-22       0.145486173562E-20       0.642278584186E-22       0.735910562350            0.00000000000           0.206734624660E-24       0.158100656055E-20       0.116597810722E-36       0.167800181728E-20  
0.175781250000E-03        297.999999999           0.187936520595            1.14395696077           0.192766052339E-07       0.459599593176E-30       0.271536145046E-18       0.195621794092           0.169606261397E-21       0.417277651707E-13       0.766122711103E-17       0.102220519006E-16       0.890762895145E-52       0.877333303865E-57       0.350626897415E-38       0.140685249614E-39       0.428520765136E-18       0.684676279251E-01       0.118483280593E-14       0.273842009268E-17       0.904974644018E-38       0.198578165408E-18       0.117336102286E-40       0.145069467659E-29       0.942453891431E-20       0.231087621650E-52       0.589662860674E-20       0.452983137931E-43       0.508832580124E-19       0.875390293014E-38       0.126149157132E-19       0.525300202998E-39       0.236211795066E-20       0.235686855951E-21       0.480577161195E-26       0.235204561297E-33       0.241653285633E-18       0.517400467551E-20       0.485839495117E-40       0.696069100238E-20       0.342476123719E-20       0.184753636261E-20       0.230869405452E-20       0.490201552167E-49       0.299090381980E-20       0.119031200370E-22        0.00000000000           0.174089305868E-20       0.319520443553E-22       0.184429573530E-20       0.816807984878E-22       0.735910558706            0.00000000000           0.261854604349E-24       0.199676160376E-20       0.279083324381E-36       0.212484831850E-20  
0.214843750000E-03        298.000000000           0.187936521391            1.14395695519           0.246419562478E-07       0.801067394589E-30       0.371922342388E-18       0.195621793044           0.229197184162E-21       0.604083052217E-13       0.112562269130E-16       0.150387482267E-16       0.619817229182E-52       0.168504498288E-56       0.661798401999E-38       0.275044714083E-39       0.619943058456E-18       0.684676275561E-01       0.174138498507E-14       0.428417112940E-17       0.194846848279E-37       0.311721377444E-18       0.304203280430E-40       0.275866682799E-29       0.179045608916E-19       0.373543190176E-52       0.705340601909E-20       0.968105811544E-43       0.804626639307E-19       0.100425085412E-36       0.231204720798E-19       0.860520350172E-39       0.283450218082E-20       0.283553168482E-21       0.582837529465E-26       0.420085045371E-33       0.329756358871E-18       0.625030780732E-20       0.846800905363E-40       0.811114108945E-20       0.408457482389E-20       0.222090018449E-20       0.278582607703E-20       0.809566188522E-49       0.359044171789E-20       0.143461952320E-22        0.00000000000           0.209865808356E-20       0.385270507735E-22       0.221548689745E-20       0.984949324877E-22       0.735910554758            0.00000000000           0.314215931935E-24       0.238769163887E-20       0.597728966079E-36       0.254894213340E-20  
0.253906250000E-03        298.000000000           0.187936522227            1.14395694893           0.304418773637E-07       0.130503593286E-29       0.492306267079E-18       0.195621791912           0.300420128492E-21       0.845505656188E-13       0.159919421919E-16       0.213946539543E-16        0.00000000000            0.00000000000           0.117573813560E-37       0.504240780140E-39       0.867083702051E-18       0.684676271570E-01       0.247484438371E-14       0.648567059250E-17       0.391142766164E-37       0.473531045105E-18       0.649247156513E-40       0.506917923673E-29       0.289235079461E-19       0.566973678242E-52       0.816772650620E-20       0.192868590985E-42       0.122280109675E-18       0.276410381242E-36       0.371567379986E-19       0.131887361527E-38       0.327769169689E-20       0.328928680425E-21       0.682536331267E-26       0.710106077815E-33       0.434854424626E-18       0.728424669445E-20       0.137953952384E-39       0.134366753339E-19       0.467552027505E-20       0.257415978954E-20       0.324300487252E-20       0.124630575887E-48       0.415488217737E-20       0.166766109349E-22        0.00000000000           0.244016013282E-20       0.448084376089E-22       0.256577366134E-20       0.114561631801E-21       0.735910550489            0.00000000000           0.363400379959E-24       0.275035567716E-20       0.119260175420E-35       0.294683748463E-20  
0.292968750000E-03        298.000000000           0.187936523103            1.14395694239           0.366977131982E-07       0.202552526094E-29       0.635904181430E-18       0.195621790690           0.385171391744E-21       0.115516880757E-12       0.221800180123E-16       0.297135877337E-16        0.00000000000            0.00000000000           0.200209455622E-37       0.882618070717E-39       0.118376738415E-17       0.684676267263E-01       0.343363622037E-14       0.958904433176E-17       0.747199009523E-37       0.702539292843E-18       0.128837183252E-39       0.905527156613E-29       0.444967462183E-19       0.824379621834E-52       0.926244280241E-20       0.365726318242E-42       0.180827380749E-18       0.566916180247E-36       0.573762326364E-19       0.193177613474E-38       0.368823254382E-20       0.371532384253E-21       0.779307241432E-26       0.115225451958E-32       0.559579184044E-18       0.826943478352E-20       0.214115913437E-39       0.196908980730E-19       0.527171052129E-20       0.290538732156E-20       0.367787767498E-20       0.182371759840E-48       0.468099442116E-20       0.188807891839E-22        0.00000000000           0.276340512552E-20       0.507602608023E-22       0.289317389238E-20       0.129789199132E-21       0.735910545886            0.00000000000           0.409085224044E-24       0.308231327498E-20       0.226413414569E-35       0.331586283934E-20  
0.332031250000E-03        298.000000000           0.187936524020            1.14395693515           0.434310587476E-07       0.303087893757E-29       0.806334990803E-18       0.195621789376           0.485555476130E-21       0.154954908579E-12       0.302044021538E-16       0.405185597134E-16        0.00000000000           0.565564696120E-56       0.330223072994E-37       0.149166219621E-38       0.158670091295E-17       0.684676262626E-01       0.467744494430E-14       0.139214342477E-16       0.137497133167E-36       0.102348529196E-17       0.243490802615E-39       0.157928964336E-28       0.663909167575E-19       0.114044948814E-51       0.101614894444E-19       0.668419795975E-42       0.262075409100E-18       0.101631618947E-35       0.860738511553E-19       0.269336916863E-38       0.406340240677E-20       0.411152521484E-21       0.872820380722E-26       0.181142213351E-32       0.706876781038E-18       0.920004846863E-20       0.320390468082E-39       0.278726048431E-19       0.674496622733E-20       0.321328679805E-20       0.408860541335E-20       0.256737946556E-48       0.516675558989E-20       0.209479921751E-22        0.00000000000           0.306679528572E-20       0.563537846584E-22       0.319640710128E-20       0.144104217031E-21       0.735910540930            0.00000000000           0.451047229839E-24       0.338214722599E-20       0.414159444362E-35       0.365415120155E-20  
0.371093750000E-03        298.000000000           0.187936524977            1.14395692757           0.506636616454E-07       0.440644827247E-29       0.100764378085E-17       0.195621787964           0.603907573932E-21       0.204840463058E-12       0.405338720072E-16       0.544491629894E-16       0.253340541574E-52        0.00000000000           0.539019604265E-37       0.245053099469E-38       0.209590361322E-17       0.684676257641E-01       0.627917074904E-14       0.199129132539E-16       0.245594783905E-36       0.146901685004E-17       0.443620800069E-39       0.269761973287E-28       0.968798518458E-19       0.241522639032E-51       0.173041136206E-19       0.118595660235E-41       0.373828082896E-18       0.168700453310E-35       0.126472826796E-18       0.572026245112E-38       0.440123912022E-20       0.447647786338E-21       0.962785493308E-26       0.277622929625E-32       0.880024048655E-18       0.100710456573E-19       0.465799969411E-39       0.384483839181E-19       0.108547922632E-19       0.349716055672E-20       0.447387168163E-20       0.350541264307E-48       0.561131938959E-20       0.228704170893E-22        0.00000000000           0.334914285953E-20       0.615677506712E-22       0.347488001821E-20       0.157452239607E-21       0.735910535608            0.00000000000           0.489162021216E-24       0.364943243483E-20       0.735620585591E-35       0.396064011291E-20  
0.410156250000E-03        298.000000000           0.187936525974            1.14395691925           0.584173131511E-07       0.625844456645E-29       0.124432100261E-17       0.195621786452           0.742807829290E-21       0.267522221669E-12       0.537355144634E-16       0.722803359097E-16        0.00000000000            0.00000000000           0.858881464086E-37       0.393337127356E-38       0.273515611910E-17       0.684676252294E-01       0.832703626309E-14       0.281225828786E-16       0.427945845478E-36       0.208173748636E-17       0.785173888713E-39       0.452329433311E-28       0.138958942164E-18       0.440647201832E-51       0.256682778793E-19       0.205347093229E-41       0.526176326204E-18       0.266556965986E-35       0.182818212822E-18       0.104752333457E-37       0.470067794933E-20       0.480945828464E-21       0.104895432118E-25       0.416640403970E-32       0.108264111014E-17       0.108786539063E-19       0.661571849892E-39       0.519867421205E-19       0.157330961621E-19       0.375684631655E-20       0.483287130519E-20       0.466790254576E-48       0.601492473370E-20       0.246431881658E-22       0.291097960394E-55       0.360966962959E-20       0.663883910453E-22       0.372863802460E-20       0.169797838792E-21       0.735910529901            0.00000000000           0.523399237436E-24       0.388465704169E-20       0.127509086297E-34       0.423504174516E-20  
0.449218750000E-03        297.999999999           0.187936527014            1.14395691054           0.667137278861E-07       0.871752759170E-29       0.152131597271E-17       0.195621784833           0.905089586152E-21       0.345767147394E-12       0.704888928531E-16       0.949421355110E-16       0.127636005097E-51       0.441191109440E-54       0.134395628172E-36       0.618965718784E-38       0.353245582820E-17       0.684676246569E-01       0.109268021448E-13       0.392690719644E-16       0.729919675085E-36       0.291660841544E-17       0.135672012941E-38       0.745791549665E-28       0.196517991311E-18       0.768985074040E-51       0.367636327261E-19       0.348144997370E-41       0.732022779338E-18       0.407219773845E-35       0.260669912962E-18       0.183383828143E-37       0.496194710834E-20       0.511039334892E-21       0.113112215233E-25       0.614196867288E-32       0.131869933653E-17       0.116210619625E-19       0.921517949979E-39       0.691813189050E-19       0.222463978114E-19       0.399263363091E-20       0.516528050433E-20       0.608747272307E-48       0.637875352324E-20       0.262642534472E-22       0.131923562306E-54       0.384799323666E-20       0.708092034547E-22       0.395828721384E-20       0.181124046307E-21       0.735910523796            0.00000000000           0.553814123582E-24       0.408910502288E-20       0.216416723383E-34       0.447778164001E-20  
0.488281250000E-03        298.000000000           0.187936528093            1.14395690104           0.755744126154E-07       0.119431733880E-28       0.184404335093E-17       0.195621783106           0.109384223246E-20       0.442805158497E-12       0.916005334198E-16       0.123540020079E-15       0.108724530860E-50       0.682334578676E-54       0.207016767863E-36       0.957261735393E-38       0.452046422044E-17       0.684676240449E-01       0.142040344087E-13       0.542654629851E-16       0.122152615803E-35       0.404371298270E-17       0.229618226677E-38       0.121062877338E-27       0.274542622942E-18       0.130004042050E-50       0.514279278050E-19       0.579283265975E-41       0.100767926791E-17       0.607413699701E-35       0.367218645503E-18       0.310894609551E-37       0.518706509176E-20       0.537980083102E-21       0.120912854322E-25       0.891454897387E-32       0.159252367521E-17       0.122987072611E-19       0.126249623007E-38       0.908612954532E-19       0.307412114786E-19       0.420517028823E-20       0.547121159470E-20       0.779847815459E-48       0.670475037058E-20       0.277341978118E-22       0.448320980875E-54       0.406410189047E-20       0.748305138995E-22       0.416489382406E-20       0.191431258543E-21       0.735910517275            0.00000000000           0.580536366803E-24       0.426471168705E-20       0.360505285317E-34       0.468992150025E-20  
0.527343750000E-03        297.999999999           0.187936529211            1.14395689111           0.850205245556E-07       0.161284007594E-28       0.221838125016E-17       0.195621781264           0.131240850346E-20       0.562371258180E-12       0.118018252602E-15       0.159374982413E-15        0.00000000000            0.00000000000           0.314409901026E-36       0.145759894039E-37       0.573692803942E-17       0.684676233918E-01       0.183063488850E-13       0.742584088496E-16       0.200910155210E-35       0.555136875512E-17       0.381489773040E-38       0.193659716025E-27       0.379346846110E-18       0.214236165739E-50       0.706355129387E-19       0.947539307398E-41       0.137353211020E-17       0.890455717195E-35       0.511656305687E-18       0.513620805646E-37       0.537934726289E-20       0.561871431760E-21       0.128285723634E-25       0.127610866094E-31       0.190878837257E-17       0.129129894490E-19       0.170491040114E-38       0.118007131509E-18       0.417462159765E-19       0.439536995962E-20       0.575115586042E-20       0.983719576958E-48       0.699541974176E-20       0.290559870090E-22       0.197352239764E-54       0.425831947524E-20       0.784588623264E-22       0.434986929161E-20       0.200735691300E-21       0.735910510323            0.00000000000           0.603757078531E-24       0.441390449455E-20       0.590360684499E-34       0.487312799210E-20  
0.566406250000E-03        297.999999999           0.187936530366            1.14395688035           0.950727198904E-07       0.215048774342E-28       0.265065967175E-17       0.195621779306           0.156437576045E-20       0.708743027429E-12       0.150844732184E-15       0.203962713879E-15       0.130279452750E-51       0.202705091057E-53       0.471362851898E-36       0.218811314766E-37       0.722505325486E-17       0.684676226961E-01       0.234055402935E-13       0.100670864657E-15       0.325164537410E-35       0.754954585066E-17       0.623156323266E-38       0.305495969902E-27       0.518830573323E-18       0.345582164141E-50       0.955895824884E-19       0.152545346494E-40       0.185476365949E-17       0.128885378837E-34       0.705591587001E-18       0.830428036630E-37       0.554030655077E-20       0.582859755142E-21       0.135223531509E-25       0.180402155428E-31       0.227250515637E-17       0.134616302741E-19       0.227324968692E-38       0.151765355819E-18       0.559002082689E-19       0.456433195813E-20       0.600591868625E-20       0.122415697175E-47       0.725361740946E-20       0.302346595065E-22        0.00000000000           0.443126334366E-20       0.817062511679E-22       0.451485011253E-20       0.209067485335E-21       0.735910502924            0.00000000000           0.623714835815E-24       0.453944141419E-20       0.951535145839E-34       0.502974555983E-20  
0.605468750000E-03        297.999999999           0.187936531559            1.14395686912           0.105750993376E-06       0.283483460545E-28       0.314763804893E-17       0.195621777227           0.185356058921E-20       0.886771109325E-12       0.191349638680E-15       0.259050821896E-15       0.152857657448E-51       0.791277606484E-54       0.698140827877E-36       0.324163694804E-37       0.903380799039E-17       0.684676219563E-01       0.296994860206E-13       0.135247448113E-15       0.518322558410E-35       0.101735172756E-16       0.100192022597E-37       0.475487956708E-27       0.702757098571E-18       0.547241549807E-50       0.127753414707E-18       0.241925264364E-40       0.248211181124E-17       0.184783114731E-34       0.963503390887E-18       0.131782762970E-36       0.567051520221E-20       0.601125328098E-21       0.141723165450E-25       0.252115105634E-31       0.268900302428E-17       0.139155369805E-19       0.299666239879E-38       0.193461460416E-18       0.739717356702E-19       0.471328215919E-20       0.623655119278E-20       0.150510639147E-47       0.748235299723E-20       0.312769837989E-22       0.150229461666E-53       0.458379721241E-20       0.845892994719E-22       0.466158191587E-20       0.216468570169E-21       0.735910495065            0.00000000000           0.640681636176E-24       0.464425761925E-20       0.151083044679E-33       0.516271684424E-20  
0.644531250000E-03        297.999999999           0.187936532788            1.14395685701           0.117074510113E-06       0.369847832587E-28       0.371647082525E-17       0.195621775023           0.218398593892E-20       0.110190009415E-11       0.240979483646E-15       0.326632980428E-15        0.00000000000           0.293256175894E-53       0.102259483747E-35       0.474368366790E-37       0.112181284338E-16       0.684676211708E-01       0.374136989887E-13       0.180100968688E-15       0.814313811536E-35       0.135876287994E-16       0.158691078392E-37       0.730496655224E-27       0.943042594566E-18       0.852497698361E-50       0.168879846702E-18       0.378266590772E-40       0.329264146892E-17       0.263002285870E-34       0.130322050269E-17       0.205675274488E-36       0.586107278467E-20       0.616873139120E-21       0.147785474288E-25       0.348577353653E-31       0.316389890580E-17       0.139228023589E-19       0.390960700284E-38       0.244610370235E-18       0.968698993146E-19       0.484354068446E-20       0.644428251509E-20       0.183062826491E-47       0.768461871087E-20       0.321910986846E-22       0.210006806559E-53       0.471698156436E-20       0.871283454914E-22       0.479181656396E-20       0.222990394274E-21       0.735910486731            0.00000000000           0.654949509253E-24       0.473132896226E-20       0.236471522234E-33       0.527443283753E-20  
0.683593750000E-03        297.999999999           0.187936534048            1.14395684439           0.129061430760E-06       0.477940675833E-28       0.436466019655E-17       0.195621772691           0.255984983062E-20       0.136017707576E-11       0.301364341330E-15       0.408958776494E-15       0.613460311766E-50        0.00000000000           0.148301507684E-35       0.685887470809E-37       0.138390003866E-16       0.684676203380E-01       0.468023913292E-13       0.237758147175E-15       0.126154761721E-34       0.179890336028E-16       0.247745799951E-37       0.110810390191E-26       0.125404610548E-17       0.130779155373E-49       0.221041437782E-18       0.583215544565E-40       0.433049359204E-17       0.372154321707E-34       0.174641099631E-17       0.316138431549E-36       0.654945491330E-20       0.630324051013E-21       0.153414995968E-25       0.477099326757E-31       0.370305862611E-17       0.175016706394E-19       0.505223981808E-38       0.306923723980E-18       0.125657719763E-18       0.495651620687E-20       0.663045648232E-20       0.220483155420E-47       0.786325611947E-20       0.329861528033E-22       0.244508215546E-53       0.483202381152E-20       0.893465381618E-22       0.490722957714E-20       0.228691623834E-21       0.735910477908            0.00000000000           0.666818376395E-24       0.480355765193E-20       0.365034743935E-33       0.536415282433E-20  
0.722656250000E-03        297.999999998           0.187936535339            1.14395683086           0.141728731650E-06       0.612186289890E-28       0.509999540265E-17       0.195621770229           0.298548424748E-20       0.166824511414E-11       0.374320488305E-15       0.508537938126E-15       0.159118935247E-51        0.00000000000           0.214366082108E-35       0.980510925165E-37       0.169633887866E-16       0.684676194568E-01       0.581489023247E-13       0.311202011711E-15       0.192805118246E-34       0.236111927347E-16       0.381423338608E-37       0.166010979779E-26       0.165284508265E-17       0.197795765725E-49       0.286656804102E-18       0.887225248923E-40       0.564756887426E-17       0.523994050671E-34       0.231905875653E-17       0.479055958805E-36       0.110728787400E-19       0.641706654303E-21       0.158619640546E-25       0.646756499859E-31       0.431254780158E-17       0.234928878812E-19       0.647132938616E-38       0.382313008622E-18       0.161563326214E-18       0.505371778412E-20       0.679647588649E-20       0.263195152743E-47       0.802086838288E-20       0.336719578491E-22       0.748312219224E-54       0.493023023917E-20       0.912689538279E-22       0.500936275524E-20       0.233635902144E-21       0.735910468584            0.00000000000           0.676585580646E-24       0.486368237929E-20       0.555977680319E-33       0.541988243660E-20  
0.761718750000E-03        297.999999999           0.187936536659            1.14395681678           0.155092021451E-06       0.777669140328E-28       0.593047826600E-17       0.195621767633           0.346530188277E-20       0.203331892887E-11       0.461848015426E-15       0.628137603879E-15       0.242646955719E-50       0.459051417565E-53       0.305924006316E-35       0.138635392223E-36       0.206639884788E-16       0.684676185256E-01       0.717653417027E-13       0.403907940746E-15       0.290790737839E-34       0.307268992906E-16       0.579316556203E-37       0.245684756724E-26       0.215947815629E-17       0.295137684540E-49       0.368511090432E-18       0.133214258647E-39       0.730409496460E-17       0.734396362709E-34       0.305189826208E-17       0.716128142018E-36       0.161552651869E-19       0.651250070646E-21       0.163410338257E-25       0.868692984846E-31       0.499857253461E-17       0.307628196056E-19       0.822062274610E-38       0.472887490043E-18       0.205987899807E-18       0.513676346927E-20       0.694375689263E-20       0.311623502067E-47       0.815977992050E-20       0.342586673175E-22       0.325241099396E-53       0.501296142637E-20       0.929217687368E-22       0.509959363690E-20       0.237889747195E-21       0.735910458747            0.00000000000           0.684537335113E-24       0.491421224717E-20       0.835759291197E-33       0.521432403996E-20  